O     ONCVPSP-3.2.3.1  r_core=   1.26150   1.35509   1.26150
8.0000      6.0000      170504    zatom,zion,pspd
8      11   2     4   600     0    pspcod,pspxc,lmax,lloc,mmax,r2well
5.99000000  4.00000000  0.00000000    rchrg fchrg qchrg
2     2     1     0     0    nproj
1     1           extension_switch
0                         7.2366985471894E+00  9.9768859532965E-01
1  0.0000000000000E+00 -7.2644567028490E-09  1.8444153426778E-08
2  1.0000000000000E-02  1.0665027785755E-01 -4.8085246035022E-02
3  2.0000000000000E-02  2.1276571663443E-01 -9.5367746531287E-02
4  3.0000000000000E-02  3.1781743822719E-01 -1.4105812652336E-01
5  4.0000000000000E-02  4.2128838529094E-01 -1.8439350077069E-01
6  5.0000000000000E-02  5.2267898053461E-01 -2.2465009490497E-01
7  6.0000000000000E-02  6.2151249001462E-01 -2.6115513157727E-01
8  7.0000000000000E-02  7.1734000048432E-01 -2.9329775875911E-01
9  8.0000000000000E-02  8.0974492812082E-01 -3.2053881579560E-01
10  9.0000000000000E-02  8.9834698476875E-01 -3.4241925519412E-01
11  1.0000000000000E-01  9.8280553804507E-01 -3.5856706403073E-01
12  1.1000000000000E-01  1.0628223130450E+00 -3.6870255777321E-01
13  1.2000000000000E-01  1.1381433957600E+00 -3.7264195070140E-01
14  1.3000000000000E-01  1.2085605114313E+00 -3.7029914035087E-01
15  1.4000000000000E-01  1.2739115646607E+00 -3.6168567787708E-01
16  1.5000000000000E-01  1.3340804419334E+00 -3.4690893127352E-01
17  1.6000000000000E-01  1.3889960910046E+00 -3.2616848330437E-01
18  1.7000000000000E-01  1.4386309051009E+00 -2.9975084015792E-01
19  1.8000000000000E-01  1.4829984528333E+00 -2.6802255953254E-01
20  1.9000000000000E-01  1.5221506068575E+00 -2.3142193750010E-01
21  2.0000000000000E-01  1.5561741354224E+00 -1.9044942145815E-01
22  2.1000000000000E-01  1.5851868307998E+00 -1.4565694123779E-01
23  2.2000000000000E-01  1.6093332570006E+00 -9.7636371494331E-02
24  2.3000000000000E-01  1.6287802059905E+00 -4.7007355458611E-02
25  2.4000000000000E-01  1.6437119566895E+00  5.5952673697861E-03
26  2.5000000000000E-01  1.6543254342745E+00  5.9534179201718E-02
27  2.6000000000000E-01  1.6608253686363E+00  1.1418219428372E-01
28  2.7000000000000E-01  1.6634195502476E+00  1.6893451023618E-01
29  2.8000000000000E-01  1.6623142791760E+00  2.2322035597550E-01
30  2.9000000000000E-01  1.6577100985836E+00  2.7651380348767E-01
31  3.0000000000000E-01  1.6497978978613E+00  3.2834352700106E-01
32  3.1000000000000E-01  1.6387554626737E+00  3.7830131367047E-01
33  3.2000000000000E-01  1.6247445397919E+00  4.2604915435107E-01
34  3.3000000000000E-01  1.6079084738285E+00  4.7132477095249E-01
35  3.4000000000000E-01  1.5883704610946E+00  5.1394546769155E-01
36  3.5000000000000E-01  1.5662324529668E+00  5.5381022672387E-01
37  3.6000000000000E-01  1.5415747276610E+00  5.9090000349980E-01
38  3.7000000000000E-01  1.5144561353974E+00  6.2527621308426E-01
39  3.8000000000000E-01  1.4849150078876E+00  6.5707743492341E-01
40  3.9000000000000E-01  1.4529707091510E+00  6.8651439942165E-01
41  4.0000000000000E-01  1.4186257911487E+00  7.1386335452101E-01
42  4.1000000000000E-01  1.3818687048655E+00  7.3945794356805E-01
43  4.2000000000000E-01  1.3426770055460E+00  7.6367975645810E-01
44  4.3000000000000E-01  1.3010209800153E+00  7.8694774375797E-01
45  4.4000000000000E-01  1.2568676146258E+00  8.0970670766652E-01
46  4.5000000000000E-01  1.2101848145476E+00  8.3241510379367E-01
47  4.6000000000000E-01  1.1609457790274E+00  8.5553240339983E-01
48  4.7000000000000E-01  1.1091334330119E+00  8.7950627661326E-01
49  4.8000000000000E-01  1.0547448132581E+00  9.0475986298748E-01
50  4.9000000000000E-01  9.9779530679619E-01  9.3167939642414E-01
51  5.0000000000000E-01  9.3832264138784E-01  9.6060244692207E-01
52  5.1000000000000E-01  8.7639053141300E-01  9.9180703187505E-01
53  5.2000000000000E-01  8.1209188837181E-01  1.0255018348683E+00
54  5.3000000000000E-01  7.4555151280012E-01  1.0618177503649E+00
55  5.4000000000000E-01  6.7692819373139E-01  1.1008009487011E+00
56  5.5000000000000E-01  6.0641615274702E-01  1.1424076277847E+00
57  5.6000000000000E-01  5.3424578192325E-01  1.1865005863823E+00
58  5.7000000000000E-01  4.6068363837467E-01  1.2328477194800E+00
59  5.8000000000000E-01  3.8603167241671E-01  1.2811224994031E+00
60  5.9000000000000E-01  3.1062568124373E-01  1.3309064681652E+00
61  6.0000000000000E-01  2.3483299532381E-01  1.3816937271850E+00
62  6.1000000000000E-01  1.5904941996702E-01  1.4328973712985E+00
63  6.2000000000000E-01  8.3695469616515E-02  1.4838577751891E+00
64  6.3000000000000E-01  9.2119469276429E-03  1.5338526030256E+00
65  6.4000000000000E-01 -6.3945067626597E-02  1.5821083769152E+00
66  6.5000000000000E-01 -1.3530973722595E-01  1.6278134071830E+00
67  6.6000000000000E-01 -2.0441241162553E-01  1.6701318585599E+00
68  6.7000000000000E-01 -2.7078589219896E-01  1.7082187013120E+00
69  6.8000000000000E-01 -3.3397191182936E-01  1.7412352758122E+00
70  6.9000000000000E-01 -3.9352771640925E-01  1.7683651835720E+00
71  7.0000000000000E-01 -4.4903263079180E-01  1.7888302075117E+00
72  7.1000000000000E-01 -5.0009449028117E-01  1.8019059595347E+00
73  7.2000000000000E-01 -5.4635581923313E-01  1.8069369544881E+00
74  7.3000000000000E-01 -5.8749964103870E-01  1.8033508162841E+00
75  7.4000000000000E-01 -6.2325480869584E-01  1.7906713343500E+00
76  7.5000000000000E-01 -6.5340075217239E-01  1.7685301062576E+00
77  7.6000000000000E-01 -6.7777154788435E-01  1.7366765254917E+00
78  7.7000000000000E-01 -6.9625922651191E-01  1.6949859009751E+00
79  7.8000000000000E-01 -7.0881624800102E-01  1.6434655270400E+00
80  7.9000000000000E-01 -7.1545708667079E-01  1.5822585583128E+00
81  8.0000000000000E-01 -7.1625888463043E-01  1.5116455828469E+00
82  8.1000000000000E-01 -7.1136114792545E-01  1.4320438280969E+00
83  8.2000000000000E-01 -7.0096447668876E-01  1.3440039772157E+00
84  8.3000000000000E-01 -6.8532833775745E-01  1.2482046168880E+00
85  8.4000000000000E-01 -6.6476790541279E-01  1.1454443816728E+00
86  8.5000000000000E-01 -6.3965001278964E-01  1.0366319027940E+00
87  8.6000000000000E-01 -6.1038827276388E-01  9.2277371068632E-01
88  8.7000000000000E-01 -5.7743744245566E-01  8.0496027957723E-01
89  8.8000000000000E-01 -5.4128711959024E-01  6.8435043822711E-01
90  8.9000000000000E-01 -5.0245487156386E-01  5.6215440295618E-01
91  9.0000000000000E-01 -4.6147890892549E-01  4.3961571663720E-01
92  9.1000000000000E-01 -4.1891042389132E-01  3.1799239987449E-01
93  9.2000000000000E-01 -3.7530572127751E-01  1.9853763766737E-01
94  9.3000000000000E-01 -3.3121827372803E-01  8.2480336108700E-02
95  9.4000000000000E-01 -2.8719083522842E-01 -2.8994111156043E-02
96  9.5000000000000E-01 -2.4374774657818E-01 -1.3476250802579E-01
97  9.6000000000000E-01 -2.0138756373285E-01 -2.3378166120019E-01
98  9.7000000000000E-01 -1.6057613476623E-01 -3.2510498761596E-01
99  9.8000000000000E-01 -1.2174024369825E-01 -4.0789762548776E-01
100  9.9000000000000E-01 -8.5261929599447E-02 -4.8144977573342E-01
101  1.0000000000000E+00 -5.1473578075129E-02 -5.4518802966888E-01
102  1.0100000000000E+00 -2.0653868059497E-02 -5.9868447529109E-01
103  1.0200000000000E+00  6.9753578905075E-03 -6.4166341232271E-01
104  1.0300000000000E+00  3.1251248270541E-02 -6.7400554894691E-01
105  1.0400000000000E+00  5.2071088113880E-02 -6.9574959771600E-01
106  1.0500000000000E+00  6.9392420173206E-02 -7.0709123693979E-01
107  1.0600000000000E+00  8.3232143279182E-02 -7.0837944637634E-01
108  1.0700000000000E+00  9.3664610607152E-02 -7.0011028047054E-01
109  1.0800000000000E+00  1.0081876712115E-01 -6.8291818471212E-01
110  1.0900000000000E+00  1.0487438381452E-01 -6.5756500763070E-01
111  1.1000000000000E+00  1.0605746359540E-01 -6.2492690498529E-01
112  1.1100000000000E+00  1.0463490715337E-01 -5.8597936717302E-01
113  1.1200000000000E+00  1.0090854407205E-01 -5.4178064408570E-01
114  1.1300000000000E+00  9.5208644156164E-02 -4.9345386637117E-01
115  1.1400000000000E+00  8.7887035178372E-02 -4.4216819063508E-01
116  1.1500000000000E+00  7.9309959706099E-02 -3.8911931251723E-01
117  1.1600000000000E+00  6.9850811122198E-02 -3.3550971039131E-01
118  1.1700000000000E+00  5.9882893116702E-02 -2.8252899362477E-01
119  1.1800000000000E+00  4.9772344109109E-02 -2.3133472003435E-01
120  1.1900000000000E+00  3.9871260262894E-02 -1.8303375210067E-01
121  1.2000000000000E+00  3.0511608842007E-02 -1.3866576514410E-01
122  1.2100000000000E+00  2.1999270210430E-02 -9.9187050552787E-02
123  1.2200000000000E+00  1.4607939462217E-02 -6.5457485663322E-02
124  1.2300000000000E+00  8.5615312695174E-03 -3.8176176392130E-02
125  1.2400000000000E+00  4.0140906039379E-03 -1.7805317286897E-02
126  1.2500000000000E+00  1.2271941714017E-03 -5.3474791305021E-03
127  1.2600000000000E+00  9.3005933173358E-05 -2.7916916655774E-04
128  1.2700000000000E+00 -7.4143472075117E-05  3.8923204262926E-04
129  1.2800000000000E+00  2.0320403326179E-05 -1.0174850330366E-04
130  1.2900000000000E+00  9.5885407769992E-06 -4.7194540798431E-05
131  1.3000000000000E+00 -4.8611803639056E-06  2.4818056628982E-05
132  1.3100000000000E+00 -4.0198697741445E-08 -2.4731512260169E-08
133  1.3200000000000E+00 -4.0928557562099E-08 -2.5180545142250E-08
134  1.3300000000000E+00  0.0000000000000E+00  0.0000000000000E+00
135  1.3400000000000E+00  0.0000000000000E+00  0.0000000000000E+00
136  1.3500000000000E+00  0.0000000000000E+00  0.0000000000000E+00
137  1.3600000000000E+00  0.0000000000000E+00  0.0000000000000E+00
138  1.3700000000000E+00  0.0000000000000E+00  0.0000000000000E+00
139  1.3800000000000E+00  0.0000000000000E+00  0.0000000000000E+00
140  1.3900000000000E+00  0.0000000000000E+00  0.0000000000000E+00
141  1.4000000000000E+00  0.0000000000000E+00  0.0000000000000E+00
142  1.4100000000000E+00  0.0000000000000E+00  0.0000000000000E+00
143  1.4200000000000E+00  0.0000000000000E+00  0.0000000000000E+00
144  1.4300000000000E+00  0.0000000000000E+00  0.0000000000000E+00
145  1.4400000000000E+00  0.0000000000000E+00  0.0000000000000E+00
146  1.4500000000000E+00  0.0000000000000E+00  0.0000000000000E+00
147  1.4600000000000E+00  0.0000000000000E+00  0.0000000000000E+00
148  1.4700000000000E+00  0.0000000000000E+00  0.0000000000000E+00
149  1.4800000000000E+00  0.0000000000000E+00  0.0000000000000E+00
150  1.4900000000000E+00  0.0000000000000E+00  0.0000000000000E+00
151  1.5000000000000E+00  0.0000000000000E+00  0.0000000000000E+00
152  1.5100000000000E+00  0.0000000000000E+00  0.0000000000000E+00
153  1.5200000000000E+00  0.0000000000000E+00  0.0000000000000E+00
154  1.5300000000000E+00  0.0000000000000E+00  0.0000000000000E+00
155  1.5400000000000E+00  0.0000000000000E+00  0.0000000000000E+00
156  1.5500000000000E+00  0.0000000000000E+00  0.0000000000000E+00
157  1.5600000000000E+00  0.0000000000000E+00  0.0000000000000E+00
158  1.5700000000000E+00  0.0000000000000E+00  0.0000000000000E+00
159  1.5800000000000E+00  0.0000000000000E+00  0.0000000000000E+00
160  1.5900000000000E+00  0.0000000000000E+00  0.0000000000000E+00
161  1.6000000000000E+00  0.0000000000000E+00  0.0000000000000E+00
162  1.6100000000000E+00  0.0000000000000E+00  0.0000000000000E+00
163  1.6200000000000E+00  0.0000000000000E+00  0.0000000000000E+00
164  1.6300000000000E+00  0.0000000000000E+00  0.0000000000000E+00
165  1.6400000000000E+00  0.0000000000000E+00  0.0000000000000E+00
166  1.6500000000000E+00  0.0000000000000E+00  0.0000000000000E+00
167  1.6600000000000E+00  0.0000000000000E+00  0.0000000000000E+00
168  1.6700000000000E+00  0.0000000000000E+00  0.0000000000000E+00
169  1.6800000000000E+00  0.0000000000000E+00  0.0000000000000E+00
170  1.6900000000000E+00  0.0000000000000E+00  0.0000000000000E+00
171  1.7000000000000E+00  0.0000000000000E+00  0.0000000000000E+00
172  1.7100000000000E+00  0.0000000000000E+00  0.0000000000000E+00
173  1.7200000000000E+00  0.0000000000000E+00  0.0000000000000E+00
174  1.7300000000000E+00  0.0000000000000E+00  0.0000000000000E+00
175  1.7400000000000E+00  0.0000000000000E+00  0.0000000000000E+00
176  1.7500000000000E+00  0.0000000000000E+00  0.0000000000000E+00
177  1.7600000000000E+00  0.0000000000000E+00  0.0000000000000E+00
178  1.7700000000000E+00  0.0000000000000E+00  0.0000000000000E+00
179  1.7800000000000E+00  0.0000000000000E+00  0.0000000000000E+00
180  1.7900000000000E+00  0.0000000000000E+00  0.0000000000000E+00
181  1.8000000000000E+00  0.0000000000000E+00  0.0000000000000E+00
182  1.8100000000000E+00  0.0000000000000E+00  0.0000000000000E+00
183  1.8200000000000E+00  0.0000000000000E+00  0.0000000000000E+00
184  1.8300000000000E+00  0.0000000000000E+00  0.0000000000000E+00
185  1.8400000000000E+00  0.0000000000000E+00  0.0000000000000E+00
186  1.8500000000000E+00  0.0000000000000E+00  0.0000000000000E+00
187  1.8600000000000E+00  0.0000000000000E+00  0.0000000000000E+00
188  1.8700000000000E+00  0.0000000000000E+00  0.0000000000000E+00
189  1.8800000000000E+00  0.0000000000000E+00  0.0000000000000E+00
190  1.8900000000000E+00  0.0000000000000E+00  0.0000000000000E+00
191  1.9000000000000E+00  0.0000000000000E+00  0.0000000000000E+00
192  1.9100000000000E+00  0.0000000000000E+00  0.0000000000000E+00
193  1.9200000000000E+00  0.0000000000000E+00  0.0000000000000E+00
194  1.9300000000000E+00  0.0000000000000E+00  0.0000000000000E+00
195  1.9400000000000E+00  0.0000000000000E+00  0.0000000000000E+00
196  1.9500000000000E+00  0.0000000000000E+00  0.0000000000000E+00
197  1.9600000000000E+00  0.0000000000000E+00  0.0000000000000E+00
198  1.9700000000000E+00  0.0000000000000E+00  0.0000000000000E+00
199  1.9800000000000E+00  0.0000000000000E+00  0.0000000000000E+00
200  1.9900000000000E+00  0.0000000000000E+00  0.0000000000000E+00
201  2.0000000000000E+00  0.0000000000000E+00  0.0000000000000E+00
202  2.0100000000000E+00  0.0000000000000E+00  0.0000000000000E+00
203  2.0200000000000E+00  0.0000000000000E+00  0.0000000000000E+00
204  2.0300000000000E+00  0.0000000000000E+00  0.0000000000000E+00
205  2.0400000000000E+00  0.0000000000000E+00  0.0000000000000E+00
206  2.0500000000000E+00  0.0000000000000E+00  0.0000000000000E+00
207  2.0600000000000E+00  0.0000000000000E+00  0.0000000000000E+00
208  2.0700000000000E+00  0.0000000000000E+00  0.0000000000000E+00
209  2.0800000000000E+00  0.0000000000000E+00  0.0000000000000E+00
210  2.0900000000000E+00  0.0000000000000E+00  0.0000000000000E+00
211  2.1000000000000E+00  0.0000000000000E+00  0.0000000000000E+00
212  2.1100000000000E+00  0.0000000000000E+00  0.0000000000000E+00
213  2.1200000000000E+00  0.0000000000000E+00  0.0000000000000E+00
214  2.1300000000000E+00  0.0000000000000E+00  0.0000000000000E+00
215  2.1400000000000E+00  0.0000000000000E+00  0.0000000000000E+00
216  2.1500000000000E+00  0.0000000000000E+00  0.0000000000000E+00
217  2.1600000000000E+00  0.0000000000000E+00  0.0000000000000E+00
218  2.1700000000000E+00  0.0000000000000E+00  0.0000000000000E+00
219  2.1800000000000E+00  0.0000000000000E+00  0.0000000000000E+00
220  2.1900000000000E+00  0.0000000000000E+00  0.0000000000000E+00
221  2.2000000000000E+00  0.0000000000000E+00  0.0000000000000E+00
222  2.2100000000000E+00  0.0000000000000E+00  0.0000000000000E+00
223  2.2200000000000E+00  0.0000000000000E+00  0.0000000000000E+00
224  2.2300000000000E+00  0.0000000000000E+00  0.0000000000000E+00
225  2.2400000000000E+00  0.0000000000000E+00  0.0000000000000E+00
226  2.2500000000000E+00  0.0000000000000E+00  0.0000000000000E+00
227  2.2600000000000E+00  0.0000000000000E+00  0.0000000000000E+00
228  2.2700000000000E+00  0.0000000000000E+00  0.0000000000000E+00
229  2.2800000000000E+00  0.0000000000000E+00  0.0000000000000E+00
230  2.2900000000000E+00  0.0000000000000E+00  0.0000000000000E+00
231  2.3000000000000E+00  0.0000000000000E+00  0.0000000000000E+00
232  2.3100000000000E+00  0.0000000000000E+00  0.0000000000000E+00
233  2.3200000000000E+00  0.0000000000000E+00  0.0000000000000E+00
234  2.3300000000000E+00  0.0000000000000E+00  0.0000000000000E+00
235  2.3400000000000E+00  0.0000000000000E+00  0.0000000000000E+00
236  2.3500000000000E+00  0.0000000000000E+00  0.0000000000000E+00
237  2.3600000000000E+00  0.0000000000000E+00  0.0000000000000E+00
238  2.3700000000000E+00  0.0000000000000E+00  0.0000000000000E+00
239  2.3800000000000E+00  0.0000000000000E+00  0.0000000000000E+00
240  2.3900000000000E+00  0.0000000000000E+00  0.0000000000000E+00
241  2.4000000000000E+00  0.0000000000000E+00  0.0000000000000E+00
242  2.4100000000000E+00  0.0000000000000E+00  0.0000000000000E+00
243  2.4200000000000E+00  0.0000000000000E+00  0.0000000000000E+00
244  2.4300000000000E+00  0.0000000000000E+00  0.0000000000000E+00
245  2.4400000000000E+00  0.0000000000000E+00  0.0000000000000E+00
246  2.4500000000000E+00  0.0000000000000E+00  0.0000000000000E+00
247  2.4600000000000E+00  0.0000000000000E+00  0.0000000000000E+00
248  2.4700000000000E+00  0.0000000000000E+00  0.0000000000000E+00
249  2.4800000000000E+00  0.0000000000000E+00  0.0000000000000E+00
250  2.4900000000000E+00  0.0000000000000E+00  0.0000000000000E+00
251  2.5000000000000E+00  0.0000000000000E+00  0.0000000000000E+00
252  2.5100000000000E+00  0.0000000000000E+00  0.0000000000000E+00
253  2.5200000000000E+00  0.0000000000000E+00  0.0000000000000E+00
254  2.5300000000000E+00  0.0000000000000E+00  0.0000000000000E+00
255  2.5400000000000E+00  0.0000000000000E+00  0.0000000000000E+00
256  2.5500000000000E+00  0.0000000000000E+00  0.0000000000000E+00
257  2.5600000000000E+00  0.0000000000000E+00  0.0000000000000E+00
258  2.5700000000000E+00  0.0000000000000E+00  0.0000000000000E+00
259  2.5800000000000E+00  0.0000000000000E+00  0.0000000000000E+00
260  2.5900000000000E+00  0.0000000000000E+00  0.0000000000000E+00
261  2.6000000000000E+00  0.0000000000000E+00  0.0000000000000E+00
262  2.6100000000000E+00  0.0000000000000E+00  0.0000000000000E+00
263  2.6200000000000E+00  0.0000000000000E+00  0.0000000000000E+00
264  2.6300000000000E+00  0.0000000000000E+00  0.0000000000000E+00
265  2.6400000000000E+00  0.0000000000000E+00  0.0000000000000E+00
266  2.6500000000000E+00  0.0000000000000E+00  0.0000000000000E+00
267  2.6600000000000E+00  0.0000000000000E+00  0.0000000000000E+00
268  2.6700000000000E+00  0.0000000000000E+00  0.0000000000000E+00
269  2.6800000000000E+00  0.0000000000000E+00  0.0000000000000E+00
270  2.6900000000000E+00  0.0000000000000E+00  0.0000000000000E+00
271  2.7000000000000E+00  0.0000000000000E+00  0.0000000000000E+00
272  2.7100000000000E+00  0.0000000000000E+00  0.0000000000000E+00
273  2.7200000000000E+00  0.0000000000000E+00  0.0000000000000E+00
274  2.7300000000000E+00  0.0000000000000E+00  0.0000000000000E+00
275  2.7400000000000E+00  0.0000000000000E+00  0.0000000000000E+00
276  2.7500000000000E+00  0.0000000000000E+00  0.0000000000000E+00
277  2.7600000000000E+00  0.0000000000000E+00  0.0000000000000E+00
278  2.7700000000000E+00  0.0000000000000E+00  0.0000000000000E+00
279  2.7800000000000E+00  0.0000000000000E+00  0.0000000000000E+00
280  2.7900000000000E+00  0.0000000000000E+00  0.0000000000000E+00
281  2.8000000000000E+00  0.0000000000000E+00  0.0000000000000E+00
282  2.8100000000000E+00  0.0000000000000E+00  0.0000000000000E+00
283  2.8200000000000E+00  0.0000000000000E+00  0.0000000000000E+00
284  2.8300000000000E+00  0.0000000000000E+00  0.0000000000000E+00
285  2.8400000000000E+00  0.0000000000000E+00  0.0000000000000E+00
286  2.8500000000000E+00  0.0000000000000E+00  0.0000000000000E+00
287  2.8600000000000E+00  0.0000000000000E+00  0.0000000000000E+00
288  2.8700000000000E+00  0.0000000000000E+00  0.0000000000000E+00
289  2.8800000000000E+00  0.0000000000000E+00  0.0000000000000E+00
290  2.8900000000000E+00  0.0000000000000E+00  0.0000000000000E+00
291  2.9000000000000E+00  0.0000000000000E+00  0.0000000000000E+00
292  2.9100000000000E+00  0.0000000000000E+00  0.0000000000000E+00
293  2.9200000000000E+00  0.0000000000000E+00  0.0000000000000E+00
294  2.9300000000000E+00  0.0000000000000E+00  0.0000000000000E+00
295  2.9400000000000E+00  0.0000000000000E+00  0.0000000000000E+00
296  2.9500000000000E+00  0.0000000000000E+00  0.0000000000000E+00
297  2.9600000000000E+00  0.0000000000000E+00  0.0000000000000E+00
298  2.9700000000000E+00  0.0000000000000E+00  0.0000000000000E+00
299  2.9800000000000E+00  0.0000000000000E+00  0.0000000000000E+00
300  2.9900000000000E+00  0.0000000000000E+00  0.0000000000000E+00
301  3.0000000000000E+00  0.0000000000000E+00  0.0000000000000E+00
302  3.0100000000000E+00  0.0000000000000E+00  0.0000000000000E+00
303  3.0200000000000E+00  0.0000000000000E+00  0.0000000000000E+00
304  3.0300000000000E+00  0.0000000000000E+00  0.0000000000000E+00
305  3.0400000000000E+00  0.0000000000000E+00  0.0000000000000E+00
306  3.0500000000000E+00  0.0000000000000E+00  0.0000000000000E+00
307  3.0600000000000E+00  0.0000000000000E+00  0.0000000000000E+00
308  3.0700000000000E+00  0.0000000000000E+00  0.0000000000000E+00
309  3.0800000000000E+00  0.0000000000000E+00  0.0000000000000E+00
310  3.0900000000000E+00  0.0000000000000E+00  0.0000000000000E+00
311  3.1000000000000E+00  0.0000000000000E+00  0.0000000000000E+00
312  3.1100000000000E+00  0.0000000000000E+00  0.0000000000000E+00
313  3.1200000000000E+00  0.0000000000000E+00  0.0000000000000E+00
314  3.1300000000000E+00  0.0000000000000E+00  0.0000000000000E+00
315  3.1400000000000E+00  0.0000000000000E+00  0.0000000000000E+00
316  3.1500000000000E+00  0.0000000000000E+00  0.0000000000000E+00
317  3.1600000000000E+00  0.0000000000000E+00  0.0000000000000E+00
318  3.1700000000000E+00  0.0000000000000E+00  0.0000000000000E+00
319  3.1800000000000E+00  0.0000000000000E+00  0.0000000000000E+00
320  3.1900000000000E+00  0.0000000000000E+00  0.0000000000000E+00
321  3.2000000000000E+00  0.0000000000000E+00  0.0000000000000E+00
322  3.2100000000000E+00  0.0000000000000E+00  0.0000000000000E+00
323  3.2200000000000E+00  0.0000000000000E+00  0.0000000000000E+00
324  3.2300000000000E+00  0.0000000000000E+00  0.0000000000000E+00
325  3.2400000000000E+00  0.0000000000000E+00  0.0000000000000E+00
326  3.2500000000000E+00  0.0000000000000E+00  0.0000000000000E+00
327  3.2600000000000E+00  0.0000000000000E+00  0.0000000000000E+00
328  3.2700000000000E+00  0.0000000000000E+00  0.0000000000000E+00
329  3.2800000000000E+00  0.0000000000000E+00  0.0000000000000E+00
330  3.2900000000000E+00  0.0000000000000E+00  0.0000000000000E+00
331  3.3000000000000E+00  0.0000000000000E+00  0.0000000000000E+00
332  3.3100000000000E+00  0.0000000000000E+00  0.0000000000000E+00
333  3.3200000000000E+00  0.0000000000000E+00  0.0000000000000E+00
334  3.3300000000000E+00  0.0000000000000E+00  0.0000000000000E+00
335  3.3400000000000E+00  0.0000000000000E+00  0.0000000000000E+00
336  3.3500000000000E+00  0.0000000000000E+00  0.0000000000000E+00
337  3.3600000000000E+00  0.0000000000000E+00  0.0000000000000E+00
338  3.3700000000000E+00  0.0000000000000E+00  0.0000000000000E+00
339  3.3800000000000E+00  0.0000000000000E+00  0.0000000000000E+00
340  3.3900000000000E+00  0.0000000000000E+00  0.0000000000000E+00
341  3.4000000000000E+00  0.0000000000000E+00  0.0000000000000E+00
342  3.4100000000000E+00  0.0000000000000E+00  0.0000000000000E+00
343  3.4200000000000E+00  0.0000000000000E+00  0.0000000000000E+00
344  3.4300000000000E+00  0.0000000000000E+00  0.0000000000000E+00
345  3.4400000000000E+00  0.0000000000000E+00  0.0000000000000E+00
346  3.4500000000000E+00  0.0000000000000E+00  0.0000000000000E+00
347  3.4600000000000E+00  0.0000000000000E+00  0.0000000000000E+00
348  3.4700000000000E+00  0.0000000000000E+00  0.0000000000000E+00
349  3.4800000000000E+00  0.0000000000000E+00  0.0000000000000E+00
350  3.4900000000000E+00  0.0000000000000E+00  0.0000000000000E+00
351  3.5000000000000E+00  0.0000000000000E+00  0.0000000000000E+00
352  3.5100000000000E+00  0.0000000000000E+00  0.0000000000000E+00
353  3.5200000000000E+00  0.0000000000000E+00  0.0000000000000E+00
354  3.5300000000000E+00  0.0000000000000E+00  0.0000000000000E+00
355  3.5400000000000E+00  0.0000000000000E+00  0.0000000000000E+00
356  3.5500000000000E+00  0.0000000000000E+00  0.0000000000000E+00
357  3.5600000000000E+00  0.0000000000000E+00  0.0000000000000E+00
358  3.5700000000000E+00  0.0000000000000E+00  0.0000000000000E+00
359  3.5800000000000E+00  0.0000000000000E+00  0.0000000000000E+00
360  3.5900000000000E+00  0.0000000000000E+00  0.0000000000000E+00
361  3.6000000000000E+00  0.0000000000000E+00  0.0000000000000E+00
362  3.6100000000000E+00  0.0000000000000E+00  0.0000000000000E+00
363  3.6200000000000E+00  0.0000000000000E+00  0.0000000000000E+00
364  3.6300000000000E+00  0.0000000000000E+00  0.0000000000000E+00
365  3.6400000000000E+00  0.0000000000000E+00  0.0000000000000E+00
366  3.6500000000000E+00  0.0000000000000E+00  0.0000000000000E+00
367  3.6600000000000E+00  0.0000000000000E+00  0.0000000000000E+00
368  3.6700000000000E+00  0.0000000000000E+00  0.0000000000000E+00
369  3.6800000000000E+00  0.0000000000000E+00  0.0000000000000E+00
370  3.6900000000000E+00  0.0000000000000E+00  0.0000000000000E+00
371  3.7000000000000E+00  0.0000000000000E+00  0.0000000000000E+00
372  3.7100000000000E+00  0.0000000000000E+00  0.0000000000000E+00
373  3.7200000000000E+00  0.0000000000000E+00  0.0000000000000E+00
374  3.7300000000000E+00  0.0000000000000E+00  0.0000000000000E+00
375  3.7400000000000E+00  0.0000000000000E+00  0.0000000000000E+00
376  3.7500000000000E+00  0.0000000000000E+00  0.0000000000000E+00
377  3.7600000000000E+00  0.0000000000000E+00  0.0000000000000E+00
378  3.7700000000000E+00  0.0000000000000E+00  0.0000000000000E+00
379  3.7800000000000E+00  0.0000000000000E+00  0.0000000000000E+00
380  3.7900000000000E+00  0.0000000000000E+00  0.0000000000000E+00
381  3.8000000000000E+00  0.0000000000000E+00  0.0000000000000E+00
382  3.8100000000000E+00  0.0000000000000E+00  0.0000000000000E+00
383  3.8200000000000E+00  0.0000000000000E+00  0.0000000000000E+00
384  3.8300000000000E+00  0.0000000000000E+00  0.0000000000000E+00
385  3.8400000000000E+00  0.0000000000000E+00  0.0000000000000E+00
386  3.8500000000000E+00  0.0000000000000E+00  0.0000000000000E+00
387  3.8600000000000E+00  0.0000000000000E+00  0.0000000000000E+00
388  3.8700000000000E+00  0.0000000000000E+00  0.0000000000000E+00
389  3.8800000000000E+00  0.0000000000000E+00  0.0000000000000E+00
390  3.8900000000000E+00  0.0000000000000E+00  0.0000000000000E+00
391  3.9000000000000E+00  0.0000000000000E+00  0.0000000000000E+00
392  3.9100000000000E+00  0.0000000000000E+00  0.0000000000000E+00
393  3.9200000000000E+00  0.0000000000000E+00  0.0000000000000E+00
394  3.9300000000000E+00  0.0000000000000E+00  0.0000000000000E+00
395  3.9400000000000E+00  0.0000000000000E+00  0.0000000000000E+00
396  3.9500000000000E+00  0.0000000000000E+00  0.0000000000000E+00
397  3.9600000000000E+00  0.0000000000000E+00  0.0000000000000E+00
398  3.9700000000000E+00  0.0000000000000E+00  0.0000000000000E+00
399  3.9800000000000E+00  0.0000000000000E+00  0.0000000000000E+00
400  3.9900000000000E+00  0.0000000000000E+00  0.0000000000000E+00
401  4.0000000000000E+00  0.0000000000000E+00  0.0000000000000E+00
402  4.0100000000000E+00  0.0000000000000E+00  0.0000000000000E+00
403  4.0200000000000E+00  0.0000000000000E+00  0.0000000000000E+00
404  4.0300000000000E+00  0.0000000000000E+00  0.0000000000000E+00
405  4.0400000000000E+00  0.0000000000000E+00  0.0000000000000E+00
406  4.0500000000000E+00  0.0000000000000E+00  0.0000000000000E+00
407  4.0600000000000E+00  0.0000000000000E+00  0.0000000000000E+00
408  4.0700000000000E+00  0.0000000000000E+00  0.0000000000000E+00
409  4.0800000000000E+00  0.0000000000000E+00  0.0000000000000E+00
410  4.0900000000000E+00  0.0000000000000E+00  0.0000000000000E+00
411  4.1000000000000E+00  0.0000000000000E+00  0.0000000000000E+00
412  4.1100000000000E+00  0.0000000000000E+00  0.0000000000000E+00
413  4.1200000000000E+00  0.0000000000000E+00  0.0000000000000E+00
414  4.1300000000000E+00  0.0000000000000E+00  0.0000000000000E+00
415  4.1400000000000E+00  0.0000000000000E+00  0.0000000000000E+00
416  4.1500000000000E+00  0.0000000000000E+00  0.0000000000000E+00
417  4.1600000000000E+00  0.0000000000000E+00  0.0000000000000E+00
418  4.1700000000000E+00  0.0000000000000E+00  0.0000000000000E+00
419  4.1800000000000E+00  0.0000000000000E+00  0.0000000000000E+00
420  4.1900000000000E+00  0.0000000000000E+00  0.0000000000000E+00
421  4.2000000000000E+00  0.0000000000000E+00  0.0000000000000E+00
422  4.2100000000000E+00  0.0000000000000E+00  0.0000000000000E+00
423  4.2200000000000E+00  0.0000000000000E+00  0.0000000000000E+00
424  4.2300000000000E+00  0.0000000000000E+00  0.0000000000000E+00
425  4.2400000000000E+00  0.0000000000000E+00  0.0000000000000E+00
426  4.2500000000000E+00  0.0000000000000E+00  0.0000000000000E+00
427  4.2600000000000E+00  0.0000000000000E+00  0.0000000000000E+00
428  4.2700000000000E+00  0.0000000000000E+00  0.0000000000000E+00
429  4.2800000000000E+00  0.0000000000000E+00  0.0000000000000E+00
430  4.2900000000000E+00  0.0000000000000E+00  0.0000000000000E+00
431  4.3000000000000E+00  0.0000000000000E+00  0.0000000000000E+00
432  4.3100000000000E+00  0.0000000000000E+00  0.0000000000000E+00
433  4.3200000000000E+00  0.0000000000000E+00  0.0000000000000E+00
434  4.3300000000000E+00  0.0000000000000E+00  0.0000000000000E+00
435  4.3400000000000E+00  0.0000000000000E+00  0.0000000000000E+00
436  4.3500000000000E+00  0.0000000000000E+00  0.0000000000000E+00
437  4.3600000000000E+00  0.0000000000000E+00  0.0000000000000E+00
438  4.3700000000000E+00  0.0000000000000E+00  0.0000000000000E+00
439  4.3800000000000E+00  0.0000000000000E+00  0.0000000000000E+00
440  4.3900000000000E+00  0.0000000000000E+00  0.0000000000000E+00
441  4.4000000000000E+00  0.0000000000000E+00  0.0000000000000E+00
442  4.4100000000000E+00  0.0000000000000E+00  0.0000000000000E+00
443  4.4200000000000E+00  0.0000000000000E+00  0.0000000000000E+00