Ne    ONCVPSP-3.2.3.1  r_core=   1.31204   1.51396
10.0000      8.0000      170504    zatom,zion,pspd
8      11   1     4   400     0    pspcod,pspxc,lmax,lloc,mmax,r2well
3.99000000  0.00000000  0.00000000    rchrg fchrg qchrg
2     2     0     0     0    nproj
1     1           extension_switch
0                         2.6916632132383E+00 -4.9313500894287E-01
1  0.0000000000000E+00  4.5811832105613E-10  2.3961270467776E-10
2  1.0000000000000E-02  9.8829218959509E-02  1.4620676062131E-02
3  2.0000000000000E-02  1.9733905210132E-01  2.9311007554604E-02
4  3.0000000000000E-02  2.9521085730545E-01  4.4140017262274E-02
5  4.0000000000000E-02  3.9212748432107E-01  5.9175468572308E-02
6  5.0000000000000E-02  4.8777403176629E-01  7.4483250447006E-02
7  6.0000000000000E-02  5.8183861707539E-01  9.0126779830871E-02
8  7.0000000000000E-02  6.7401316316270E-01  1.0616642701916E-01
9  8.0000000000000E-02  7.6399420511428E-01  1.2265896927549E-01
10  9.0000000000000E-02  8.5148371965888E-01  1.3965707769169E-01
11  1.0000000000000E-01  9.3618997951606E-01  1.5720884193660E-01
12  1.1000000000000E-01  1.0178284339821E+00  1.7535733714660E-01
13  1.2000000000000E-01  1.0961226163043E+00  1.9414023677284E-01
14  1.3000000000000E-01  1.1708050775238E+00  2.1358947472336E-01
15  1.4000000000000E-01  1.2416183455473E+00  2.3373095962866E-01
16  1.5000000000000E-01  1.3083159072580E+00  2.5458434352042E-01
17  1.6000000000000E-01  1.3706632105033E+00  2.7616284665361E-01
18  1.7000000000000E-01  1.4284386818235E+00  2.9847313962534E-01
19  1.8000000000000E-01  1.4814347548198E+00  3.2151528335841E-01
20  1.9000000000000E-01  1.5294589031282E+00  3.4528272692805E-01
21  2.0000000000000E-01  1.5723346710661E+00  3.6976236262457E-01
22  2.1000000000000E-01  1.6099026941877E+00  3.9493463706798E-01
23  2.2000000000000E-01  1.6420217012146E+00  4.2077371663055E-01
24  2.3000000000000E-01  1.6685694881329E+00  4.4724770488394E-01
25  2.4000000000000E-01  1.6894438546650E+00  4.7431890927769E-01
26  2.5000000000000E-01  1.7045634928563E+00  5.0194415377743E-01
27  2.6000000000000E-01  1.7138688171654E+00  5.3007513375313E-01
28  2.7000000000000E-01  1.7173227252297E+00  5.5865880901146E-01
29  2.8000000000000E-01  1.7149112783953E+00  5.8763783051838E-01
30  2.9000000000000E-01  1.7066442911617E+00  6.1695099606101E-01
31  3.0000000000000E-01  1.6925558189029E+00  6.4653372985519E-01
32  3.1000000000000E-01  1.6727045335844E+00  6.7631858091928E-01
33  3.2000000000000E-01  1.6471739777080E+00  7.0623573490735E-01
34  3.3000000000000E-01  1.6160726873729E+00  7.3621353402798E-01
35  3.4000000000000E-01  1.5795341761493E+00  7.6617899966769E-01
36  3.5000000000000E-01  1.5377167724021E+00  7.9605835239154E-01
37  3.6000000000000E-01  1.4908033037834E+00  8.2577752410621E-01
38  3.7000000000000E-01  1.4390006238121E+00  8.5526265734149E-01
39  3.8000000000000E-01  1.3825389767726E+00  8.8444058683246E-01
40  3.9000000000000E-01  1.3216711985818E+00  9.1323929886395E-01
41  4.0000000000000E-01  1.2566717527709E+00  9.4158836416746E-01
42  4.1000000000000E-01  1.1878356023030E+00  9.6941934053489E-01
43  4.2000000000000E-01  1.1154769195705E+00  9.9666614172863E-01
44  4.3000000000000E-01  1.0399276385796E+00  1.0232653697186E+00
45  4.4000000000000E-01  9.6153585500832E-01  1.0491566077582E+00
46  4.5000000000000E-01  8.8066408150015E-01  1.0742826723187E+00
47  4.6000000000000E-01  7.9768736721561E-01  1.0985898224245E+00
48  4.7000000000000E-01  7.1299129227554E-01  1.1220279254727E+00
49  4.8000000000000E-01  6.2696984928719E-01  1.1445505791622E+00
50  4.9000000000000E-01  5.4002322561677E-01  1.1661151897004E+00
51  5.0000000000000E-01  4.5255550144783E-01  1.1866830069965E+00
52  5.1000000000000E-01  3.6497227992136E-01  1.2062191180673E+00
53  5.2000000000000E-01  2.7767826677635E-01  1.2246924003939E+00
54  5.3000000000000E-01  1.9107481788078E-01  1.2420754374376E+00
55  5.4000000000000E-01  1.0555747384893E-01  1.2583443989792E+00
56  5.5000000000000E-01  2.1513501569113E-02  1.2734788893502E+00
57  5.6000000000000E-01 -6.0680537097342E-02  1.2874617669988E+00
58  5.7000000000000E-01 -1.4066116894500E-01  1.3002789391552E+00
59  5.8000000000000E-01 -2.1808032484772E-01  1.3119191356352E+00
60  5.9000000000000E-01 -2.9260756662206E-01  1.3223736660430E+00
61  6.0000000000000E-01 -3.6393220536574E-01  1.3316361647983E+00
62  6.1000000000000E-01 -4.3176529191541E-01  1.3397023285227E+00
63  6.2000000000000E-01 -4.9584146087971E-01  1.3465696503665E+00
64  6.3000000000000E-01 -5.5592061073367E-01  1.3522371558493E+00
65  6.4000000000000E-01 -6.1178940367990E-01  1.3567051447153E+00
66  6.5000000000000E-01 -6.6326257039680E-01  1.3599749431776E+00
67  6.6000000000000E-01 -7.1018400639043E-01  1.3620486707379E+00
68  6.7000000000000E-01 -7.5242764842018E-01  1.3629290255298E+00
69  6.8000000000000E-01 -7.8989812137405E-01  1.3626190918407E+00
70  6.9000000000000E-01 -8.2253114801014E-01  1.3611221731266E+00
71  7.0000000000000E-01 -8.5029371612538E-01  1.3584416534494E+00
72  7.1000000000000E-01 -8.7318399994676E-01  1.3545808898439E+00
73  7.2000000000000E-01 -8.9123103484610E-01  1.3495431376620E+00
74  7.3000000000000E-01 -9.0449414682630E-01  1.3433315104563E+00
75  7.4000000000000E-01 -9.1306214058809E-01  1.3359489754563E+00
76  7.5000000000000E-01 -9.1705225234420E-01  1.3273983851648E+00
77  7.6000000000000E-01 -9.1660887587635E-01  1.3176825450686E+00
78  7.7000000000000E-01 -9.1190207258610E-01  1.3068043169212E+00
79  7.8000000000000E-01 -9.0312587848771E-01  1.2947667565202E+00
80  7.9000000000000E-01 -8.9049642315620E-01  1.2815732843814E+00
81  8.0000000000000E-01 -8.7424987759105E-01  1.2672278872056E+00
82  8.1000000000000E-01 -8.5464024974404E-01  1.2517353475546E+00
83  8.2000000000000E-01 -8.3193704807371E-01  1.2351014987011E+00
84  8.3000000000000E-01 -8.0642283490637E-01  1.2173335012026E+00
85  8.4000000000000E-01 -7.7839069258961E-01  1.1984401373765E+00
86  8.5000000000000E-01 -7.4814162640108E-01  1.1784321195285E+00
87  8.6000000000000E-01 -7.1598192891086E-01  1.1573224075070E+00
88  8.7000000000000E-01 -6.8222053097982E-01  1.1351265309413E+00
89  8.8000000000000E-01 -6.4716636479976E-01  1.1118629113533E+00
90  8.9000000000000E-01 -6.1112576433998E-01  1.0875531792342E+00
91  9.0000000000000E-01 -5.7439992825630E-01  1.0622224811383E+00
92  9.1000000000000E-01 -5.3728246974324E-01  1.0358997718664E+00
93  9.2000000000000E-01 -5.0005707697199E-01  1.0086180869043E+00
94  9.3000000000000E-01 -4.6299530666242E-01  9.8041479042886E-01
95  9.4000000000000E-01 -4.2635453199587E-01  9.5133179440904E-01
96  9.5000000000000E-01 -3.9037606450324E-01  9.2141574460008E-01
97  9.6000000000000E-01 -3.5528346775313E-01  8.9071816956366E-01
98  9.7000000000000E-01 -3.2128107869379E-01  8.5929558922319E-01
99  9.8000000000000E-01 -2.8855275031034E-01  8.2720957989976E-01
100  9.9000000000000E-01 -2.5726082691179E-01  7.9452679325315E-01
101  1.0000000000000E+00 -2.2754536090829E-01  7.6131892706485E-01
102  1.0100000000000E+00 -1.9952357734821E-01  7.2766264635102E-01
103  1.0200000000000E+00 -1.7328958983337E-01  6.9363945386672E-01
104  1.0300000000000E+00 -1.4891436866091E-01  6.5933550967096E-01
105  1.0400000000000E+00 -1.2644595940796E-01  6.2484140000666E-01
106  1.0500000000000E+00 -1.0590994735355E-01  5.9025185638373E-01
107  1.0600000000000E+00 -8.7310160434250E-02  5.5566542636661E-01
108  1.0700000000000E+00 -7.0629600852607E-02  5.2118409815898E-01
109  1.0800000000000E+00 -5.5831592839183E-02  4.8691288168446E-01
110  1.0900000000000E+00 -4.2861131748521E-02  4.5295934940413E-01
111  1.1000000000000E+00 -3.1646417386542E-02  4.1943314064885E-01
112  1.1100000000000E+00 -2.2100552262538E-02  3.8644543376864E-01
113  1.1200000000000E+00 -1.4123383714186E-02  3.5410839081983E-01
114  1.1300000000000E+00 -7.6034670589031E-03  3.2253457994639E-01
115  1.1400000000000E+00 -2.4201257324375E-03  2.9183638090188E-01
116  1.1500000000000E+00  1.5544171605015E-03  2.6212537954105E-01
117  1.1600000000000E+00  4.4528620714923E-03  2.3351175726741E-01
118  1.1700000000000E+00  6.4106378688411E-03  2.0610368160070E-01
119  1.1800000000000E+00  7.5637155959182E-03  1.8000670413602E-01
120  1.1900000000000E+00  8.0464584269607E-03  1.5532317219842E-01
121  1.2000000000000E+00  7.9895346685644E-03  1.3215166040265E-01
122  1.2100000000000E+00  7.5179203397056E-03  1.1058642826664E-01
123  1.2200000000000E+00  6.7490170037190E-03  9.0716909841437E-02
124  1.2300000000000E+00  5.7909091150832E-03  7.2627240998749E-02
125  1.2400000000000E+00  4.7407838639421E-03  5.6395829722629E-02
126  1.2500000000000E+00  3.6835354915378E-03  4.2094974522644E-02
127  1.2600000000000E+00  2.6905730100842E-03  2.9790535375916E-02
128  1.2700000000000E+00  1.8193260595754E-03  1.9545824389760E-02
129  1.2800000000000E+00  1.1103083263404E-03  1.1402195906008E-02
130  1.2900000000000E+00  5.8509545325621E-04  5.3756971264863E-03
131  1.3000000000000E+00  2.8213048750158E-04  1.6784017086202E-03
132  1.3100000000000E+00  1.5654009695372E-04  1.1966346610124E-04
133  1.3200000000000E+00  5.9928117190921E-05 -1.3074293632406E-04
134  1.3300000000000E+00 -6.7024537218182E-06  2.2206410553584E-05
135  1.3400000000000E+00 -6.2989596309511E-06  2.5766856531998E-05
136  1.3500000000000E+00  2.6556938472484E-06 -7.5666027173197E-06
137  1.3600000000000E+00 -1.4508277868501E-08  6.7263531163261E-10
138  1.3700000000000E+00 -3.5526692872395E-07  1.6470947377828E-08
139  1.3800000000000E+00  0.0000000000000E+00  0.0000000000000E+00
140  1.3900000000000E+00  0.0000000000000E+00  0.0000000000000E+00
141  1.4000000000000E+00  0.0000000000000E+00  0.0000000000000E+00
142  1.4100000000000E+00  0.0000000000000E+00  0.0000000000000E+00
143  1.4200000000000E+00  0.0000000000000E+00  0.0000000000000E+00
144  1.4300000000000E+00  0.0000000000000E+00  0.0000000000000E+00
145  1.4400000000000E+00  0.0000000000000E+00  0.0000000000000E+00
146  1.4500000000000E+00  0.0000000000000E+00  0.0000000000000E+00
147  1.4600000000000E+00  0.0000000000000E+00  0.0000000000000E+00
148  1.4700000000000E+00  0.0000000000000E+00  0.0000000000000E+00
149  1.4800000000000E+00  0.0000000000000E+00  0.0000000000000E+00
150  1.4900000000000E+00  0.0000000000000E+00  0.0000000000000E+00
151  1.5000000000000E+00  0.0000000000000E+00  0.0000000000000E+00
152  1.5100000000000E+00  0.0000000000000E+00  0.0000000000000E+00
153  1.5200000000000E+00  0.0000000000000E+00  0.0000000000000E+00
154  1.5300000000000E+00  0.0000000000000E+00  0.0000000000000E+00
155  1.5400000000000E+00  0.0000000000000E+00  0.0000000000000E+00
156  1.5500000000000E+00  0.0000000000000E+00  0.0000000000000E+00
157  1.5600000000000E+00  0.0000000000000E+00  0.0000000000000E+00
158  1.5700000000000E+00  0.0000000000000E+00  0.0000000000000E+00
159  1.5800000000000E+00  0.0000000000000E+00  0.0000000000000E+00
160  1.5900000000000E+00  0.0000000000000E+00  0.0000000000000E+00
161  1.6000000000000E+00  0.0000000000000E+00  0.0000000000000E+00
162  1.6100000000000E+00  0.0000000000000E+00  0.0000000000000E+00
163  1.6200000000000E+00  0.0000000000000E+00  0.0000000000000E+00
164  1.6300000000000E+00  0.0000000000000E+00  0.0000000000000E+00
165  1.6400000000000E+00  0.0000000000000E+00  0.0000000000000E+00
166  1.6500000000000E+00  0.0000000000000E+00  0.0000000000000E+00
167  1.6600000000000E+00  0.0000000000000E+00  0.0000000000000E+00
168  1.6700000000000E+00  0.0000000000000E+00  0.0000000000000E+00
169  1.6800000000000E+00  0.0000000000000E+00  0.0000000000000E+00
170  1.6900000000000E+00  0.0000000000000E+00  0.0000000000000E+00
171  1.7000000000000E+00  0.0000000000000E+00  0.0000000000000E+00
172  1.7100000000000E+00  0.0000000000000E+00  0.0000000000000E+00
173  1.7200000000000E+00  0.0000000000000E+00  0.0000000000000E+00
174  1.7300000000000E+00  0.0000000000000E+00  0.0000000000000E+00
175  1.7400000000000E+00  0.0000000000000E+00  0.0000000000000E+00
176  1.7500000000000E+00  0.0000000000000E+00  0.0000000000000E+00
177  1.7600000000000E+00  0.0000000000000E+00  0.0000000000000E+00
178  1.7700000000000E+00  0.0000000000000E+00  0.0000000000000E+00
179  1.7800000000000E+00  0.0000000000000E+00  0.0000000000000E+00
180  1.7900000000000E+00  0.0000000000000E+00  0.0000000000000E+00
181  1.8000000000000E+00  0.0000000000000E+00  0.0000000000000E+00
182  1.8100000000000E+00  0.0000000000000E+00  0.0000000000000E+00
183  1.8200000000000E+00  0.0000000000000E+00  0.0000000000000E+00
184  1.8300000000000E+00  0.0000000000000E+00  0.0000000000000E+00
185  1.8400000000000E+00  0.0000000000000E+00  0.0000000000000E+00
186  1.8500000000000E+00  0.0000000000000E+00  0.0000000000000E+00
187  1.8600000000000E+00  0.0000000000000E+00  0.0000000000000E+00
188  1.8700000000000E+00  0.0000000000000E+00  0.0000000000000E+00
189  1.8800000000000E+00  0.0000000000000E+00  0.0000000000000E+00
190  1.8900000000000E+00  0.0000000000000E+00  0.0000000000000E+00
191  1.9000000000000E+00  0.0000000000000E+00  0.0000000000000E+00
192  1.9100000000000E+00  0.0000000000000E+00  0.0000000000000E+00
193  1.9200000000000E+00  0.0000000000000E+00  0.0000000000000E+00
194  1.9300000000000E+00  0.0000000000000E+00  0.0000000000000E+00
195  1.9400000000000E+00  0.0000000000000E+00  0.0000000000000E+00
196  1.9500000000000E+00  0.0000000000000E+00  0.0000000000000E+00
197  1.9600000000000E+00  0.0000000000000E+00  0.0000000000000E+00
198  1.9700000000000E+00  0.0000000000000E+00  0.0000000000000E+00
199  1.9800000000000E+00  0.0000000000000E+00  0.0000000000000E+00
200  1.9900000000000E+00  0.0000000000000E+00  0.0000000000000E+00
201  2.0000000000000E+00  0.0000000000000E+00  0.0000000000000E+00
202  2.0100000000000E+00  0.0000000000000E+00  0.0000000000000E+00
203  2.0200000000000E+00  0.0000000000000E+00  0.0000000000000E+00
204  2.0300000000000E+00  0.0000000000000E+00  0.0000000000000E+00
205  2.0400000000000E+00  0.0000000000000E+00  0.0000000000000E+00
206  2.0500000000000E+00  0.0000000000000E+00  0.0000000000000E+00
207  2.0600000000000E+00  0.0000000000000E+00  0.0000000000000E+00
208  2.0700000000000E+00  0.0000000000000E+00  0.0000000000000E+00
209  2.0800000000000E+00  0.0000000000000E+00  0.0000000000000E+00
210  2.0900000000000E+00  0.0000000000000E+00  0.0000000000000E+00
211  2.1000000000000E+00  0.0000000000000E+00  0.0000000000000E+00
212  2.1100000000000E+00  0.0000000000000E+00  0.0000000000000E+00
213  2.1200000000000E+00  0.0000000000000E+00  0.0000000000000E+00
214  2.1300000000000E+00  0.0000000000000E+00  0.0000000000000E+00
215  2.1400000000000E+00  0.0000000000000E+00  0.0000000000000E+00
216  2.1500000000000E+00  0.0000000000000E+00  0.0000000000000E+00
217  2.1600000000000E+00  0.0000000000000E+00  0.0000000000000E+00
218  2.1700000000000E+00  0.0000000000000E+00  0.0000000000000E+00
219  2.1800000000000E+00  0.0000000000000E+00  0.0000000000000E+00
220  2.1900000000000E+00  0.0000000000000E+00  0.0000000000000E+00
221  2.2000000000000E+00  0.0000000000000E+00  0.0000000000000E+00
222  2.2100000000000E+00  0.0000000000000E+00  0.0000000000000E+00
223  2.2200000000000E+00  0.0000000000000E+00  0.0000000000000E+00
224  2.2300000000000E+00  0.0000000000000E+00  0.0000000000000E+00
225  2.2400000000000E+00  0.0000000000000E+00  0.0000000000000E+00
226  2.2500000000000E+00  0.0000000000000E+00  0.0000000000000E+00
227  2.2600000000000E+00  0.0000000000000E+00  0.0000000000000E+00
228  2.2700000000000E+00  0.0000000000000E+00  0.0000000000000E+00
229  2.2800000000000E+00  0.0000000000000E+00  0.0000000000000E+00
230  2.2900000000000E+00  0.0000000000000E+00  0.0000000000000E+00
231  2.3000000000000E+00  0.0000000000000E+00  0.0000000000000E+00
232  2.3100000000000E+00  0.0000000000000E+00  0.0000000000000E+00
233  2.3200000000000E+00  0.0000000000000E+00  0.0000000000000E+00
234  2.3300000000000E+00  0.0000000000000E+00  0.0000000000000E+00
235  2.3400000000000E+00  0.0000000000000E+00  0.0000000000000E+00
236  2.3500000000000E+00  0.0000000000000E+00  0.0000000000000E+00
237  2.3600000000000E+00  0.0000000000000E+00  0.0000000000000E+00
238  2.3700000000000E+00  0.0000000000000E+00  0.0000000000000E+00
239  2.3800000000000E+00  0.0000000000000E+00  0.0000000000000E+00
240  2.3900000000000E+00  0.0000000000000E+00  0.0000000000000E+00
241  2.4000000000000E+00  0.0000000000000E+00  0.0000000000000E+00
242  2.4100000000000E+00  0.0000000000000E+00  0.0000000000000E+00
243  2.4200000000000E+00  0.0000000000000E+00  0.0000000000000E+00
244  2.4300000000000E+00  0.0000000000000E+00  0.0000000000000E+00
245  2.4400000000000E+00  0.0000000000000E+00  0.0000000000000E+00
246  2.4500000000000E+00  0.0000000000000E+00  0.0000000000000E+00
247  2.4600000000000E+00  0.0000000000000E+00  0.0000000000000E+00
248  2.4700000000000E+00  0.0000000000000E+00  0.0000000000000E+00
249  2.4800000000000E+00  0.0000000000000E+00  0.0000000000000E+00
250  2.4900000000000E+00  0.0000000000000E+00  0.0000000000000E+00
251  2.5000000000000E+00  0.0000000000000E+00  0.0000000000000E+00
252  2.5100000000000E+00  0.0000000000000E+00  0.0000000000000E+00
253  2.5200000000000E+00  0.0000000000000E+00  0.0000000000000E+00
254  2.5300000000000E+00  0.0000000000000E+00  0.0000000000000E+00
255  2.5400000000000E+00  0.0000000000000E+00  0.0000000000000E+00
256  2.5500000000000E+00  0.0000000000000E+00  0.0000000000000E+00
257  2.5600000000000E+00  0.0000000000000E+00  0.0000000000000E+00
258  2.5700000000000E+00  0.0000000000000E+00  0.0000000000000E+00
259  2.5800000000000E+00  0.0000000000000E+00  0.0000000000000E+00
260  2.5900000000000E+00  0.0000000000000E+00  0.0000000000000E+00
261  2.6000000000000E+00  0.0000000000000E+00  0.0000000000000E+00
262  2.6100000000000E+00  0.0000000000000E+00  0.0000000000000E+00
263  2.6200000000000E+00  0.0000000000000E+00  0.0000000000000E+00
264  2.6300000000000E+00  0.0000000000000E+00  0.0000000000000E+00
265  2.6400000000000E+00  0.0000000000000E+00  0.0000000000000E+00
266  2.6500000000000E+00  0.0000000000000E+00  0.0000000000000E+00
267  2.6600000000000E+00  0.0000000000000E+00  0.0000000000000E+00
268  2.6700000000000E+00  0.0000000000000E+00  0.0000000000000E+00
269  2.6800000000000E+00  0.0000000000000E+00  0.0000000000000E+00
270  2.6900000000000E+00  0.0000000000000E+00  0.0000000000000E+00
271  2.7000000000000E+00  0.0000000000000E+00  0.0000000000000E+00
272  2.7100000000000E+00  0.0000000000000E+00  0.0000000000000E+00
273  2.7200000000000E+00  0.0000000000000E+00  0.0000000000000E+00
274  2.7300000000000E+00  0.0000000000000E+00  0.0000000000000E+00
275  2.7400000000000E+00  0.0000000000000E+00  0.0000000000000E+00
276  2.7500000000000E+00  0.0000000000000E+00  0.0000000000000E+00
277  2.7600000000000E+00  0.0000000000000E+00  0.0000000000000E+00
278  2.7700000000000E+00  0.0000000000000E+00  0.0000000000000E+00
279  2.7800000000000E+00  0.0000000000000E+00  0.0000000000000E+00
280  2.7900000000000E+00  0.0000000000000E+00  0.0000000000000E+00
281  2.8000000000000E+00  0.0000000000000E+00  0.0000000000000E+00
282  2.8100000000000E+00  0.0000000000000E+00  0.0000000000000E+00
283  2.8200000000000E+00  0.0000000000000E+00  0.0000000000000E+00
284  2.8300000000000E+00  0.0000000000000E+00  0.0000000000000E+00
285  2.8400000000000E+00  0.0000000000000E+00  0.0000000000000E+00
286  2.8500000000000E+00  0.0000000000000E+00  0.0000000000000E+00
287  2.8600000000000E+00  0.0000000000000E+00  0.0000000000000E+00
288  2.8700000000000E+00  0.0000000000000E+00  0.0000000000000E+00
289  2.8800000000000E+00  0.0000000000000E+00  0.0000000000000E+00
290  2.8900000000000E+00  0.0000000000000E+00  0.0000000000000E+00
291  2.9000000000000E+00  0.0000000000000E+00  0.0000000000000E+00
292  2.9100000000000E+00  0.0000000000000E+00  0.0000000000000E+00
293  2.9200000000000E+00  0.0000000000000E+00  0.0000000000000E+00
294  2.9300000000000E+00  0.0000000000000E+00  0.0000000000000E+00
295  2.9400000000000E+00  0.0000000000000E+00  0.0000000000000E+00
296  2.9500000000000E+00  0.0000000000000E+00  0.0000000000000E+00
297  2.9600000000000E+00  0.0000000000000E+00  0.0000000000000E+00
298  2.9700000000000E+00  0.0000000000000E+00  0.0000000000000E+00
299  2.9800000000000E+00  0.0000000000000E+00  0.0000000000000E+00
300  2.9900000000000E+00  0.0000000000000E+00  0.0000000000000E+00
301  3.0000000000000E+00  0.0000000000000E+00  0.0000000000000E+00
302  3.0100000000000E+00  0.0000000000000E+00  0.0000000000000E+00
303  3.0200000000000E+00  0.0000000000000E+00  0.0000000000000E+00
304  3.0300000000000E+00  0.0000000000000E+00  0.0000000000000E+00
305  3.0400000000000E+00  0.0000000000000E+00  0.0000000000000E+00
306  3.0500000000000E+00  0.0000000000000E+00  0.0000000000000E+00
307  3.0600000000000E+00  0.0000000000000E+00  0.0000000000000E+00
308  3.0700000000000E+00  0.0000000000000E+00  0.0000000000000E+00
309  3.0800000000000E+00  0.0000000000000E+00  0.0000000000000E+00
310  3.0900000000000E+00  0.0000000000000E+00  0.0000000000000E+00
311  3.1000000000000E+00  0.0000000000000E+00  0.0000000000000E+00
312  3.1100000000000E+00  0.0000000000000E+00  0.0000000000000E+00
313  3.1200000000000E+00  0.0000000000000E+00  0.0000000000000E+00
314  3.1300000000000E+00  0.0000000000000E+00  0.0000000000000E+00
315  3.1400000000000E+00  0.0000000000000E+00  0.0000000000000E+00
316  3.1500000000000E+00  0.0000000000000E+00  0.0000000000000E+00
317  3.1600000000000E+00  0.0000000000000E+00  0.0000000000000E+00
318  3.1700000000000E+00  0.0000000000000E+00  0.0000000000000E+00
319  3.1800000000000E+00  0.0000000000000E+00  0.0000000000000E+00
320  3.1900000000000E+00  0.0000000000000E+00  0.0000000000000E+00
321  3.2000000000000E+00  0.0000000000000E+00  0.0000000000000E+00
322  3.2100000000000E+00  0.0000000000000E+00  0.0000000000000E+00
323  3.2200000000000E+00  0.0000000000000E+00  0.0000000000000E+00
324  3.2300000000000E+00  0.0000000000000E+00  0.0000000000000E+00
325  3.2400000000000E+00  0.0000000000000E+00  0.0000000000000E+00
326  3.2500000000000E+00  0.0000000000000E+00  0.0000000000000E+00
327  3.2600000000000E+00  0.0000000000000E+00  0.0000000000000E+00
328  3.2700000000000E+00  0.0000000000000E+00  0.0000000000000E+00
329  3.2800000000000E+00  0.0000000000000E+00  0.0000000000000E+00
330  3.2900000000000E+00  0.0000000000000E+00  0.0000000000000E+00
331  3.3000000000000E+00  0.0000000000000E+00  0.0000000000000E+00
332  3.3100000000000E+00  0.0000000000000E+00  0.0000000000000E+00
333  3.3200000000000E+00  0.0000000000000E+00  0.0000000000000E+00
334  3.3300000000000E+00  0.0000000000000E+00  0.0000000000000E+00
335  3.3400000000000E+00  0.0000000000000E+00  0.0000000000000E+00
336  3.3500000000000E+00  0.0000000000000E+00  0.0000000000000E+00
337  3.3600000000000E+00  0.0000000000000E+00  0.0000000000000E+00
338  3.3700000000000E+00  0.0000000000000E+00  0.0000000000000E+00
339  3.3800000000000E+00  0.0000000000000E+00  0.0000000000000E+00
340  3.3900000000000E+00  0.0000000000000E+00  0.0000000000000E+00
341  3.4000000000000E+00  0.0000000000000E+00  0.0000000000000E+00
342  3.4100000000000E+00  0.0000000000000E+00  0.0000000000000E+00
343  3.4200000000000E+00  0.0000000000000E+00  0.0000000000000E+00
344  3.4300000000000E+00  0.0000000000000E+00  0.0000000000000E+00
345  3.4400000000000E+00  0.0000000000000E+00  0.0000000000000E+00
346  3.4500000000000E+00  0.0000000000000E+00  0.0000000000000E+00
347  3.4600000000000E+00  0.0000000000000E+00  0.0000000000000E+00
348  3.4700000000000E+00  0.0000000000000E+00  0.0000000000000E+00
349  3.4800000000000E+00  0.0000000000000E+00  0.0000000000000E+00
350  3.4900000000000E+00  0.0000000000000E+00  0.0000000000000E+00
351  3.5000000000000E+00  0.0000000000000E+00  0.0000000000000E+00
352  3.5100000000000E+00  0.0000000000000E+00  0.0000000000000E+00
353  3.5200000000000E+00  0.0000000000000E+00  0.0000000000000E+00
354  3.5300000000000E+00  0.0000000000000E+00  0.0000000000000E+00
355  3.5400000000000E+00  0.0000000000000E+00  0.0000000000000E+00
356  3.5500000000000E+00  0.0000000000000E+00  0.0000000000000E+00
357  3.5600000000000E+00  0.0000000000000E+00  0.0000000000000E+00
358  3.5700000000000E+00  0.0000000000000E+00  0.0000000000000E+00
359  3.5800000000000E+00  0.0000000000000E+00  0.0000000000000E+00
360  3.5900000000000E+00  0.0000000000000E+00  0.0000000000000E+00
361  3.6000000000000E+00  0.0000000000000E+00  0.0000000000000E+00
362  3.6100000000000E+00  0.0000000000000E+00  0.0000000000000E+00
363  3.6200000000000E+00  0.0000000000000E+00  0.0000000000000E+00
364  3.6300000000000E+00  0.0000000000000E+00  0.0000000000000E+00
365  3.6400000000000E+00  0.0000000000000E+00  0.0000000000000E+00
366  3.6500000000000E+00  0.0000000000000E+00  0.0000000000000E+00
367  3.6600000000000E+00  0.0000000000000E+00  0.0000000000000E+00
368  3.6700000000000E+00  0.0000000000000E+00  0.0000000000000E+00
369  3.6800000000000E+00  0.0000000000000E+00  0.0000000000000E+00
370  3.6900000000000E+00  0.0000000000000E+00  0.0000000000000E+00
371  3.7000000000000E+00  0.0000000000000E+00  0.0000000000000E+00
372  3.7100000000000E+00  0.0000000000000E+00  0.0000000000000E+00
373  3.7200000000000E+00  0.0000000000000E+00  0.0000000000000E+00
374  3.7300000000000E+00  0.0000000000000E+00  0.0000000000000E+00
375  3.7400000000000E+00  0.0000000000000E+00  0.0000000000000E+00
376  3.7500000000000E+00  0.0000000000000E+00  0.0000000000000E+00
377  3.7600000000000E+00  0.0000000000000E+00  0.0000000000000E+00
378  3.7700000000000E+00  0.0000000000000E+00  0.0000000000000E+00
379  3.7800000000000E+00  0.0000000000000E+00  0.0000000000000E+00
380  3.7900000000000E+00  0.0000000000000E+00  0.0000000000000E+00
381  3.8000000000000E+00  0.0000000000000E+00  0.0000000000000E+00
382  3.8100000000000E+00  0.0000000000000E+00  0.0000000000000E+00
383  3.8200000000000E+00  0.0000000000000E+00  0.0000000000000E+00
384  3.8300000000000E+00  0.0000000000000E+00  0.0000000000000E+00
385  3.8400000000000E+00  0.0000000000000E+00  0.0000000000000E+00
386  3.8500000000000E+00  0.0000000000000E+00  0.0000000000000E+00
387  3.8600000000000E+00  0.0000000000000E+00  0.0000000000000E+00
388  3.8700000000000E+00  0.0000000000000E+00  0.0000000000000E+00
389  3.8800000000000E+00  0.0000000000000E+00  0.0000000000000E+00
390  3.8900000000000E+00  0.0000000000000E+00  0.0000000000000E+00
391  3.9000000000000E+00  0.0000000000000E+00  0.0000000000000E+00
392  3.9100000000000E+00  0.0000000000000E+00  0.0000000000000E+00
393  3.9200000000000E+00  0.0000000000000E+00  0.0000000000000E+00
394  3.9300000000000E+00  0.0000000000000E+00  0.0000000000000E+00
395  3.9400000000000E+00  0.0000000000000E+00  0.0000000000000E+00
396  3.9500000000000E+00  0.0000000000000E+00  0.0000000000000E+00
397  3.9600000000000E+00  0.0000000000000E+00  0.0000000000000E+00
398  3.9700000000000E+00  0.0000000000000E+00  0.0000000000000E+00
399  3.9800000000000E+00  0.0000000000000E+00  0.0000000000000E+00
400  3.9900000000000E+00  0.0000000000000E+00  0.0000000000000E+00
1                        -6.4378211386940E+00 -1.9670254301407E+00
1  0.0000000000000E+00 -2.1197814337182E-10  8.8548220839035E-10
2  1.0000000000000E-02  1.8719560274620E-03 -5.1229562964714E-04
3  2.0000000000000E-02  7.4803877169059E-03 -2.0465890286247E-03
4  3.0000000000000E-02  1.6803002923805E-02 -4.5950828134680E-03
5  4.0000000000000E-02  2.9802704984639E-02 -8.1447254671004E-03
6  5.0000000000000E-02  4.6427678533923E-02 -1.2677129266650E-02
7  6.0000000000000E-02  6.6611510539166E-02 -1.8168458845562E-02
8  7.0000000000000E-02  9.0273347419807E-02 -2.4589293791984E-02
9  8.0000000000000E-02  1.1731808932814E-01 -3.1904469570912E-02
10  9.0000000000000E-02  1.4763662285625E-01 -4.0072901879395E-02
11  1.0000000000000E-01  1.8110609358801E-01 -4.9047400290282E-02
12  1.1000000000000E-01  2.1759022003461E-01 -5.8774477698154E-02
13  1.2000000000000E-01  2.5693965057177E-01 -6.9194162641579E-02
14  1.3000000000000E-01  2.9899236503295E-01 -8.0239822028465E-02
15  1.4000000000000E-01  3.4357412260300E-01 -9.1838002128932E-02
16  1.5000000000000E-01  3.9049895759768E-01 -1.0390829591534E-01
17  1.6000000000000E-01  4.3956972460543E-01 -1.1636324491763E-01
18  1.7000000000000E-01  4.9057869430716E-01 -1.2910828371978E-01
19  1.8000000000000E-01  5.4330820107758E-01 -1.4204173504871E-01
20  1.9000000000000E-01  5.9753134320848E-01 -1.5505486309998E-01
21  2.0000000000000E-01  6.5301273628116E-01 -1.6803199230613E-01
22  2.1000000000000E-01  7.0950931985445E-01 -1.8085069818794E-01
23  2.2000000000000E-01  7.6677121722877E-01 -1.9338207624011E-01
24  2.3000000000000E-01  8.2454264759939E-01 -2.0549109399724E-01
25  2.4000000000000E-01  8.8256288942686E-01 -2.1703703051315E-01
26  2.5000000000000E-01  9.4056729333564E-01 -2.2787400647381E-01
27  2.6000000000000E-01  9.9828834230679E-01 -2.3785160706452E-01
28  2.7000000000000E-01  1.0554567563649E+00 -2.4681559853667E-01
29  2.8000000000000E-01  1.1118026383789E+00 -2.5460873818138E-01
30  2.9000000000000E-01  1.1670566570073E+00 -2.6107167613302E-01
31  3.0000000000000E-01  1.2209512622297E+00 -2.6604394610698E-01
32  3.1000000000000E-01  1.2732219283214E+00 -2.6936504084313E-01
33  3.2000000000000E-01  1.3236084185637E+00 -2.7087556669174E-01
34  3.3000000000000E-01  1.3718560654297E+00 -2.7041847046177E-01
35  3.4000000000000E-01  1.4177170594744E+00 -2.6784033036821E-01
36  3.5000000000000E-01  1.4609517396740E+00 -2.6299270168230E-01
37  3.6000000000000E-01  1.5013298775252E+00 -2.5573350652299E-01
38  3.7000000000000E-01  1.5386319468336E+00 -2.4592845614620E-01
39  3.8000000000000E-01  1.5726503707920E+00 -2.3345249310491E-01
40  3.9000000000000E-01  1.6031907376928E+00 -2.1819123978396E-01
41  4.0000000000000E-01  1.6300729764264E+00 -2.0004243907077E-01
42  4.1000000000000E-01  1.6531324828063E+00 -1.7891737232076E-01
43  4.2000000000000E-01  1.6722211877241E+00 -1.5474223932414E-01