Na    ONCVPSP-3.2.3.1  r_core=   1.20708   1.55069
11.0000      9.0000      170504    zatom,zion,pspd
8      11   1     4   400     0    pspcod,pspxc,lmax,lloc,mmax,r2well
3.99000000  0.00000000  0.00000000    rchrg fchrg qchrg
2     2     0     0     0    nproj
1     1           extension_switch
0                         2.6672905476182E+00 -6.7659898359217E-01
1  0.0000000000000E+00  2.5264271785730E-09  5.7478874437855E-10
2  1.0000000000000E-02  9.2888822410680E-02  2.1011872458823E-02
3  2.0000000000000E-02  1.8555666507515E-01  4.2105660826454E-02
4  3.0000000000000E-02  2.7778124180542E-01  6.3362268682529E-02
5  4.0000000000000E-02  3.6933769278200E-01  8.4860586728180E-02
6  5.0000000000000E-02  4.5999739521265E-01  1.0667651564788E-01
7  6.0000000000000E-02  5.4952688913546E-01  1.2888202371877E-01
8  7.0000000000000E-02  6.3768695373378E-01  1.5154425006600E-01
9  8.0000000000000E-02  7.2423186700442E-01  1.7472466388794E-01
10  9.0000000000000E-02  8.0890887853279E-01  1.9847828927058E-01
11  1.0000000000000E-01  8.9145792152447E-01  2.2285300438618E-01
12  1.1000000000000E-01  9.7161158617526E-01  2.4788892293660E-01
13  1.2000000000000E-01  1.0490953719915E+00  2.7361786467027E-01
14  1.3000000000000E-01  1.1236282318644E+00  3.0006292068593E-01
15  1.4000000000000E-01  1.1949234156270E+00  3.2723811805127E-01
16  1.5000000000000E-01  1.2626896155604E+00  3.5514818702519E-01
17  1.6000000000000E-01  1.3266324109341E+00  3.8378843289544E-01
18  1.7000000000000E-01  1.3864560032632E+00  4.1314471314505E-01
19  1.8000000000000E-01  1.4418652285998E+00  4.4319351935816E-01
20  1.9000000000000E-01  1.4925678279554E+00  4.7390216198585E-01
21  2.0000000000000E-01  1.5382769519308E+00  5.0522905483195E-01
22  2.1000000000000E-01  1.5787138709061E+00  5.3712409490366E-01
23  2.2000000000000E-01  1.6136108577791E+00  5.6952913211876E-01
24  2.3000000000000E-01  1.6427142063071E+00  6.0237852228426E-01
25  2.4000000000000E-01  1.6657873446750E+00  6.3559975577514E-01
26  2.5000000000000E-01  1.6826140010257E+00  6.6911415345889E-01
27  2.6000000000000E-01  1.6930013754096E+00  7.0283762064310E-01
28  2.7000000000000E-01  1.6967832709738E+00  7.3668144917962E-01
29  2.8000000000000E-01  1.6938231362487E+00  7.7055315734780E-01
30  2.9000000000000E-01  1.6840169701290E+00  8.0435735676702E-01
31  3.0000000000000E-01  1.6672960415980E+00  8.3799663536092E-01
32  3.1000000000000E-01  1.6436293774100E+00  8.7137244531360E-01
33  3.2000000000000E-01  1.6130259728223E+00  9.0438598502335E-01
34  3.3000000000000E-01  1.5755366830393E+00  9.3693906427061E-01
35  3.4000000000000E-01  1.5312557562626E+00  9.6893494217042E-01
36  3.5000000000000E-01  1.4803219731065E+00  1.0002791279706E+00
37  3.6000000000000E-01  1.4229193615841E+00  1.0308801353788E+00
38  3.7000000000000E-01  1.3592774618419E+00  1.0606501818433E+00
39  3.8000000000000E-01  1.2896711202627E+00  1.0895058250700E+00
40  3.9000000000000E-01  1.2144197983889E+00  1.1173685300069E+00
41  4.0000000000000E-01  1.1338863882737E+00  1.1441651605722E+00
42  4.1000000000000E-01  1.0484755322580E+00  1.1698283915092E+00
43  4.2000000000000E-01  9.5863145171137E-01  1.1942970369227E+00
44  4.3000000000000E-01  8.6483529588168E-01  1.2175162932537E+00
45  4.4000000000000E-01  7.6760202856920E-01  1.2394378956868E+00
46  4.5000000000000E-01  6.6747687679725E-01  1.2600201882135E+00
47  4.6000000000000E-01  5.6503137189081E-01  1.2792281088068E+00
48  4.7000000000000E-01  4.6085901931543E-01  1.2970330923558E+00
49  4.8000000000000E-01  3.5557063918058E-01  1.3134128951624E+00
50  4.9000000000000E-01  2.4978942439476E-01  1.3283513458945E+00
51  5.0000000000000E-01  1.4414576799646E-01  1.3418380289045E+00
52  5.1000000000000E-01  3.9271915107897E-02  1.3538679067468E+00
53  5.2000000000000E-01 -6.4203501797103E-02  1.3644408895499E+00
54  5.3000000000000E-01 -1.6566098310568E-01  1.3735613596056E+00
55  5.4000000000000E-01 -2.6449567481187E-01  1.3812376601178E+00
56  5.5000000000000E-01 -3.6012280991810E-01  1.3874815575050E+00
57  5.6000000000000E-01 -4.5198301451060E-01  1.3923076869565E+00
58  5.7000000000000E-01 -5.3954741527087E-01  1.3957329911101E+00
59  5.8000000000000E-01 -6.2232248676368E-01  1.3977761617369E+00
60  5.9000000000000E-01 -6.9985457926496E-01  1.3984570941923E+00
61  6.0000000000000E-01 -7.7173407110348E-01  1.3977963641176E+00
62  6.1000000000000E-01 -8.3759909350738E-01  1.3958147354669E+00
63  6.2000000000000E-01 -8.9713878064621E-01  1.3925327083817E+00
64  6.3000000000000E-01 -9.5009600298849E-01  1.3879701147615E+00
65  6.4000000000000E-01 -9.9626954808219E-01  1.3821457685831E+00
66  6.5000000000000E-01 -1.0355157194081E+00  1.3750771771238E+00
67  6.6000000000000E-01 -1.0677493309638E+00  1.3667803182441E+00
68  6.7000000000000E-01 -1.0929440825735E+00  1.3572694878151E+00
69  6.8000000000000E-01 -1.1111323085330E+00  1.3465572202396E+00
70  6.9000000000000E-01 -1.1224041000060E+00  1.3346542838239E+00
71  7.0000000000000E-01 -1.1269058094171E+00  1.3215697515465E+00
72  7.1000000000000E-01 -1.1248379528901E+00  1.3073111465401E+00
73  7.2000000000000E-01 -1.1164525344391E+00  1.2918846603773E+00
74  7.3000000000000E-01 -1.1020498230319E+00  1.2752954410514E+00
75  7.4000000000000E-01 -1.0819746206779E+00  1.2575479463816E+00
76  7.5000000000000E-01 -1.0566120662975E+00  1.2386463574731E+00
77  7.6000000000000E-01 -1.0263830261824E+00  1.2185950458286E+00
78  7.7000000000000E-01 -9.9173912725984E-01  1.1973990867771E+00
79  7.8000000000000E-01 -9.5315749410541E-01  1.1750648110445E+00
80  7.9000000000000E-01 -9.1113525456700E-01  1.1516003855759E+00
81  8.0000000000000E-01 -8.6618388195880E-01  1.1270164141301E+00
82  8.1000000000000E-01 -8.1882344399690E-01  1.1013265477128E+00
83  8.2000000000000E-01 -7.6957682993571E-01  1.0745480946072E+00
84  8.3000000000000E-01 -7.1896402770947E-01  1.0467026196036E+00
85  8.4000000000000E-01 -6.6749652227251E-01  1.0178165220242E+00
86  8.5000000000000E-01 -6.1567188476841E-01  9.8792158228928E-01
87  8.6000000000000E-01 -5.6396861965673E-01  9.5705546707270E-01
88  8.7000000000000E-01 -5.1284133351525E-01  9.2526218355059E-01
89  8.8000000000000E-01 -4.6271628495668E-01  8.9259247383980E-01
90  8.9000000000000E-01 -4.1398737000432E-01  8.5910414145954E-01
91  9.0000000000000E-01 -3.6701259142697E-01  8.2486230250839E-01
92  9.1000000000000E-01 -3.2211105401411E-01  7.8993955522502E-01
93  9.2000000000000E-01 -2.7956052066403E-01  7.5441606267869E-01
94  9.3000000000000E-01 -2.3959555655373E-01  7.1837954450036E-01
95  9.4000000000000E-01 -2.0240628066198E-01  6.8192517480097E-01
96  9.5000000000000E-01 -1.6813773564465E-01  6.4515538471112E-01
97  9.6000000000000E-01 -1.3688987853571E-01  6.0817956931200E-01
98  9.7000000000000E-01 -1.0871818636850E-01  5.7111370004674E-01
99  9.8000000000000E-01 -8.3634862216547E-02  5.3407984506202E-01
100  9.9000000000000E-01 -6.1610618903770E-02  4.9720560124120E-01
101  1.0000000000000E+00 -4.2577009657878E-02  4.6062344296318E-01
102  1.0100000000000E+00 -2.6429267351737E-02  4.2446999384334E-01
103  1.0200000000000E+00 -1.3029606897136E-02  3.8888522885127E-01
104  1.0300000000000E+00 -2.2109387582174E-03  3.5401161526364E-01
105  1.0400000000000E+00  6.2190640124187E-03  3.1999320181122E-01
106  1.0500000000000E+00  1.2473608111668E-02  2.8697466623876E-01
107  1.0600000000000E+00  1.6782198657190E-02  2.5510033215866E-01
108  1.0700000000000E+00  1.9385904409043E-02  2.2451316661228E-01
109  1.0800000000000E+00  2.0532542109222E-02  1.9535377013931E-01
110  1.0900000000000E+00  2.0471853757306E-02  1.6775937136442E-01
111  1.1000000000000E+00  1.9450751142602E-02  1.4186283819720E-01
112  1.1100000000000E+00  1.7708701099514E-02  1.1779171760823E-01
113  1.1200000000000E+00  1.5473323336151E-02  9.5667315685256E-02
114  1.1300000000000E+00  1.2956269581225E-02  7.5603829171166E-02
115  1.1400000000000E+00  1.0349450246706E-02  5.7707539273379E-02
116  1.1500000000000E+00  7.8216689439779E-03  4.2076077580675E-02
117  1.1600000000000E+00  5.5157205637200E-03  2.8797773168482E-02
118  1.1700000000000E+00  3.5472680566290E-03  1.7956365259104E-02
119  1.1800000000000E+00  1.9939406651324E-03  9.5948419722052E-03
120  1.1900000000000E+00  9.1329424525680E-04  3.7895229487020E-03
121  1.2000000000000E+00  3.8003436531405E-04  7.5080612618248E-04
122  1.2100000000000E+00  1.6134067113514E-04 -1.3665255494745E-04
123  1.2200000000000E+00  1.4586099083632E-05 -3.3985650907188E-05
124  1.2300000000000E+00 -1.3909426387300E-05  4.2493517865500E-05
125  1.2400000000000E+00  3.1003351577992E-06 -6.5794431560273E-06
126  1.2500000000000E+00  7.4589258461833E-07 -1.7572414889326E-06
127  1.2600000000000E+00 -5.7725240228469E-07  8.8282793808379E-08
128  1.2700000000000E+00  0.0000000000000E+00  0.0000000000000E+00
129  1.2800000000000E+00  0.0000000000000E+00  0.0000000000000E+00
130  1.2900000000000E+00  0.0000000000000E+00  0.0000000000000E+00
131  1.3000000000000E+00  0.0000000000000E+00  0.0000000000000E+00
132  1.3100000000000E+00  0.0000000000000E+00  0.0000000000000E+00
133  1.3200000000000E+00  0.0000000000000E+00  0.0000000000000E+00
134  1.3300000000000E+00  0.0000000000000E+00  0.0000000000000E+00
135  1.3400000000000E+00  0.0000000000000E+00  0.0000000000000E+00
136  1.3500000000000E+00  0.0000000000000E+00  0.0000000000000E+00
137  1.3600000000000E+00  0.0000000000000E+00  0.0000000000000E+00
138  1.3700000000000E+00  0.0000000000000E+00  0.0000000000000E+00
139  1.3800000000000E+00  0.0000000000000E+00  0.0000000000000E+00
140  1.3900000000000E+00  0.0000000000000E+00  0.0000000000000E+00
141  1.4000000000000E+00  0.0000000000000E+00  0.0000000000000E+00
142  1.4100000000000E+00  0.0000000000000E+00  0.0000000000000E+00
143  1.4200000000000E+00  0.0000000000000E+00  0.0000000000000E+00
144  1.4300000000000E+00  0.0000000000000E+00  0.0000000000000E+00
145  1.4400000000000E+00  0.0000000000000E+00  0.0000000000000E+00
146  1.4500000000000E+00  0.0000000000000E+00  0.0000000000000E+00
147  1.4600000000000E+00  0.0000000000000E+00  0.0000000000000E+00
148  1.4700000000000E+00  0.0000000000000E+00  0.0000000000000E+00
149  1.4800000000000E+00  0.0000000000000E+00  0.0000000000000E+00
150  1.4900000000000E+00  0.0000000000000E+00  0.0000000000000E+00
151  1.5000000000000E+00  0.0000000000000E+00  0.0000000000000E+00
152  1.5100000000000E+00  0.0000000000000E+00  0.0000000000000E+00
153  1.5200000000000E+00  0.0000000000000E+00  0.0000000000000E+00
154  1.5300000000000E+00  0.0000000000000E+00  0.0000000000000E+00
155  1.5400000000000E+00  0.0000000000000E+00  0.0000000000000E+00
156  1.5500000000000E+00  0.0000000000000E+00  0.0000000000000E+00
157  1.5600000000000E+00  0.0000000000000E+00  0.0000000000000E+00
158  1.5700000000000E+00  0.0000000000000E+00  0.0000000000000E+00
159  1.5800000000000E+00  0.0000000000000E+00  0.0000000000000E+00
160  1.5900000000000E+00  0.0000000000000E+00  0.0000000000000E+00
161  1.6000000000000E+00  0.0000000000000E+00  0.0000000000000E+00
162  1.6100000000000E+00  0.0000000000000E+00  0.0000000000000E+00
163  1.6200000000000E+00  0.0000000000000E+00  0.0000000000000E+00
164  1.6300000000000E+00  0.0000000000000E+00  0.0000000000000E+00
165  1.6400000000000E+00  0.0000000000000E+00  0.0000000000000E+00
166  1.6500000000000E+00  0.0000000000000E+00  0.0000000000000E+00
167  1.6600000000000E+00  0.0000000000000E+00  0.0000000000000E+00
168  1.6700000000000E+00  0.0000000000000E+00  0.0000000000000E+00
169  1.6800000000000E+00  0.0000000000000E+00  0.0000000000000E+00
170  1.6900000000000E+00  0.0000000000000E+00  0.0000000000000E+00
171  1.7000000000000E+00  0.0000000000000E+00  0.0000000000000E+00
172  1.7100000000000E+00  0.0000000000000E+00  0.0000000000000E+00
173  1.7200000000000E+00  0.0000000000000E+00  0.0000000000000E+00
174  1.7300000000000E+00  0.0000000000000E+00  0.0000000000000E+00
175  1.7400000000000E+00  0.0000000000000E+00  0.0000000000000E+00
176  1.7500000000000E+00  0.0000000000000E+00  0.0000000000000E+00
177  1.7600000000000E+00  0.0000000000000E+00  0.0000000000000E+00
178  1.7700000000000E+00  0.0000000000000E+00  0.0000000000000E+00
179  1.7800000000000E+00  0.0000000000000E+00  0.0000000000000E+00
180  1.7900000000000E+00  0.0000000000000E+00  0.0000000000000E+00
181  1.8000000000000E+00  0.0000000000000E+00  0.0000000000000E+00
182  1.8100000000000E+00  0.0000000000000E+00  0.0000000000000E+00
183  1.8200000000000E+00  0.0000000000000E+00  0.0000000000000E+00
184  1.8300000000000E+00  0.0000000000000E+00  0.0000000000000E+00
185  1.8400000000000E+00  0.0000000000000E+00  0.0000000000000E+00
186  1.8500000000000E+00  0.0000000000000E+00  0.0000000000000E+00
187  1.8600000000000E+00  0.0000000000000E+00  0.0000000000000E+00
188  1.8700000000000E+00  0.0000000000000E+00  0.0000000000000E+00
189  1.8800000000000E+00  0.0000000000000E+00  0.0000000000000E+00
190  1.8900000000000E+00  0.0000000000000E+00  0.0000000000000E+00
191  1.9000000000000E+00  0.0000000000000E+00  0.0000000000000E+00
192  1.9100000000000E+00  0.0000000000000E+00  0.0000000000000E+00
193  1.9200000000000E+00  0.0000000000000E+00  0.0000000000000E+00
194  1.9300000000000E+00  0.0000000000000E+00  0.0000000000000E+00
195  1.9400000000000E+00  0.0000000000000E+00  0.0000000000000E+00
196  1.9500000000000E+00  0.0000000000000E+00  0.0000000000000E+00
197  1.9600000000000E+00  0.0000000000000E+00  0.0000000000000E+00
198  1.9700000000000E+00  0.0000000000000E+00  0.0000000000000E+00
199  1.9800000000000E+00  0.0000000000000E+00  0.0000000000000E+00
200  1.9900000000000E+00  0.0000000000000E+00  0.0000000000000E+00
201  2.0000000000000E+00  0.0000000000000E+00  0.0000000000000E+00
202  2.0100000000000E+00  0.0000000000000E+00  0.0000000000000E+00
203  2.0200000000000E+00  0.0000000000000E+00  0.0000000000000E+00
204  2.0300000000000E+00  0.0000000000000E+00  0.0000000000000E+00
205  2.0400000000000E+00  0.0000000000000E+00  0.0000000000000E+00
206  2.0500000000000E+00  0.0000000000000E+00  0.0000000000000E+00
207  2.0600000000000E+00  0.0000000000000E+00  0.0000000000000E+00
208  2.0700000000000E+00  0.0000000000000E+00  0.0000000000000E+00
209  2.0800000000000E+00  0.0000000000000E+00  0.0000000000000E+00
210  2.0900000000000E+00  0.0000000000000E+00  0.0000000000000E+00
211  2.1000000000000E+00  0.0000000000000E+00  0.0000000000000E+00
212  2.1100000000000E+00  0.0000000000000E+00  0.0000000000000E+00
213  2.1200000000000E+00  0.0000000000000E+00  0.0000000000000E+00
214  2.1300000000000E+00  0.0000000000000E+00  0.0000000000000E+00
215  2.1400000000000E+00  0.0000000000000E+00  0.0000000000000E+00
216  2.1500000000000E+00  0.0000000000000E+00  0.0000000000000E+00
217  2.1600000000000E+00  0.0000000000000E+00  0.0000000000000E+00
218  2.1700000000000E+00  0.0000000000000E+00  0.0000000000000E+00
219  2.1800000000000E+00  0.0000000000000E+00  0.0000000000000E+00
220  2.1900000000000E+00  0.0000000000000E+00  0.0000000000000E+00
221  2.2000000000000E+00  0.0000000000000E+00  0.0000000000000E+00
222  2.2100000000000E+00  0.0000000000000E+00  0.0000000000000E+00
223  2.2200000000000E+00  0.0000000000000E+00  0.0000000000000E+00
224  2.2300000000000E+00  0.0000000000000E+00  0.0000000000000E+00
225  2.2400000000000E+00  0.0000000000000E+00  0.0000000000000E+00
226  2.2500000000000E+00  0.0000000000000E+00  0.0000000000000E+00
227  2.2600000000000E+00  0.0000000000000E+00  0.0000000000000E+00
228  2.2700000000000E+00  0.0000000000000E+00  0.0000000000000E+00
229  2.2800000000000E+00  0.0000000000000E+00  0.0000000000000E+00
230  2.2900000000000E+00  0.0000000000000E+00  0.0000000000000E+00
231  2.3000000000000E+00  0.0000000000000E+00  0.0000000000000E+00
232  2.3100000000000E+00  0.0000000000000E+00  0.0000000000000E+00
233  2.3200000000000E+00  0.0000000000000E+00  0.0000000000000E+00
234  2.3300000000000E+00  0.0000000000000E+00  0.0000000000000E+00
235  2.3400000000000E+00  0.0000000000000E+00  0.0000000000000E+00
236  2.3500000000000E+00  0.0000000000000E+00  0.0000000000000E+00
237  2.3600000000000E+00  0.0000000000000E+00  0.0000000000000E+00
238  2.3700000000000E+00  0.0000000000000E+00  0.0000000000000E+00
239  2.3800000000000E+00  0.0000000000000E+00  0.0000000000000E+00
240  2.3900000000000E+00  0.0000000000000E+00  0.0000000000000E+00
241  2.4000000000000E+00  0.0000000000000E+00  0.0000000000000E+00
242  2.4100000000000E+00  0.0000000000000E+00  0.0000000000000E+00
243  2.4200000000000E+00  0.0000000000000E+00  0.0000000000000E+00
244  2.4300000000000E+00  0.0000000000000E+00  0.0000000000000E+00
245  2.4400000000000E+00  0.0000000000000E+00  0.0000000000000E+00
246  2.4500000000000E+00  0.0000000000000E+00  0.0000000000000E+00
247  2.4600000000000E+00  0.0000000000000E+00  0.0000000000000E+00
248  2.4700000000000E+00  0.0000000000000E+00  0.0000000000000E+00
249  2.4800000000000E+00  0.0000000000000E+00  0.0000000000000E+00
250  2.4900000000000E+00  0.0000000000000E+00  0.0000000000000E+00
251  2.5000000000000E+00  0.0000000000000E+00  0.0000000000000E+00
252  2.5100000000000E+00  0.0000000000000E+00  0.0000000000000E+00
253  2.5200000000000E+00  0.0000000000000E+00  0.0000000000000E+00
254  2.5300000000000E+00  0.0000000000000E+00  0.0000000000000E+00
255  2.5400000000000E+00  0.0000000000000E+00  0.0000000000000E+00
256  2.5500000000000E+00  0.0000000000000E+00  0.0000000000000E+00
257  2.5600000000000E+00  0.0000000000000E+00  0.0000000000000E+00
258  2.5700000000000E+00  0.0000000000000E+00  0.0000000000000E+00
259  2.5800000000000E+00  0.0000000000000E+00  0.0000000000000E+00
260  2.5900000000000E+00  0.0000000000000E+00  0.0000000000000E+00
261  2.6000000000000E+00  0.0000000000000E+00  0.0000000000000E+00
262  2.6100000000000E+00  0.0000000000000E+00  0.0000000000000E+00
263  2.6200000000000E+00  0.0000000000000E+00  0.0000000000000E+00
264  2.6300000000000E+00  0.0000000000000E+00  0.0000000000000E+00
265  2.6400000000000E+00  0.0000000000000E+00  0.0000000000000E+00
266  2.6500000000000E+00  0.0000000000000E+00  0.0000000000000E+00
267  2.6600000000000E+00  0.0000000000000E+00  0.0000000000000E+00
268  2.6700000000000E+00  0.0000000000000E+00  0.0000000000000E+00
269  2.6800000000000E+00  0.0000000000000E+00  0.0000000000000E+00
270  2.6900000000000E+00  0.0000000000000E+00  0.0000000000000E+00
271  2.7000000000000E+00  0.0000000000000E+00  0.0000000000000E+00
272  2.7100000000000E+00  0.0000000000000E+00  0.0000000000000E+00
273  2.7200000000000E+00  0.0000000000000E+00  0.0000000000000E+00
274  2.7300000000000E+00  0.0000000000000E+00  0.0000000000000E+00
275  2.7400000000000E+00  0.0000000000000E+00  0.0000000000000E+00
276  2.7500000000000E+00  0.0000000000000E+00  0.0000000000000E+00
277  2.7600000000000E+00  0.0000000000000E+00  0.0000000000000E+00
278  2.7700000000000E+00  0.0000000000000E+00  0.0000000000000E+00
279  2.7800000000000E+00  0.0000000000000E+00  0.0000000000000E+00
280  2.7900000000000E+00  0.0000000000000E+00  0.0000000000000E+00
281  2.8000000000000E+00  0.0000000000000E+00  0.0000000000000E+00
282  2.8100000000000E+00  0.0000000000000E+00  0.0000000000000E+00
283  2.8200000000000E+00  0.0000000000000E+00  0.0000000000000E+00
284  2.8300000000000E+00  0.0000000000000E+00  0.0000000000000E+00
285  2.8400000000000E+00  0.0000000000000E+00  0.0000000000000E+00
286  2.8500000000000E+00  0.0000000000000E+00  0.0000000000000E+00
287  2.8600000000000E+00  0.0000000000000E+00  0.0000000000000E+00
288  2.8700000000000E+00  0.0000000000000E+00  0.0000000000000E+00
289  2.8800000000000E+00  0.0000000000000E+00  0.0000000000000E+00
290  2.8900000000000E+00  0.0000000000000E+00  0.0000000000000E+00
291  2.9000000000000E+00  0.0000000000000E+00  0.0000000000000E+00
292  2.9100000000000E+00  0.0000000000000E+00  0.0000000000000E+00
293  2.9200000000000E+00  0.0000000000000E+00  0.0000000000000E+00
294  2.9300000000000E+00  0.0000000000000E+00  0.0000000000000E+00
295  2.9400000000000E+00  0.0000000000000E+00  0.0000000000000E+00
296  2.9500000000000E+00  0.0000000000000E+00  0.0000000000000E+00
297  2.9600000000000E+00  0.0000000000000E+00  0.0000000000000E+00
298  2.9700000000000E+00  0.0000000000000E+00  0.0000000000000E+00
299  2.9800000000000E+00  0.0000000000000E+00  0.0000000000000E+00
300  2.9900000000000E+00  0.0000000000000E+00  0.0000000000000E+00
301  3.0000000000000E+00  0.0000000000000E+00  0.0000000000000E+00
302  3.0100000000000E+00  0.0000000000000E+00  0.0000000000000E+00
303  3.0200000000000E+00  0.0000000000000E+00  0.0000000000000E+00
304  3.0300000000000E+00  0.0000000000000E+00  0.0000000000000E+00
305  3.0400000000000E+00  0.0000000000000E+00  0.0000000000000E+00
306  3.0500000000000E+00  0.0000000000000E+00  0.0000000000000E+00
307  3.0600000000000E+00  0.0000000000000E+00  0.0000000000000E+00
308  3.0700000000000E+00  0.0000000000000E+00  0.0000000000000E+00
309  3.0800000000000E+00  0.0000000000000E+00  0.0000000000000E+00
310  3.0900000000000E+00  0.0000000000000E+00  0.0000000000000E+00
311  3.1000000000000E+00  0.0000000000000E+00  0.0000000000000E+00
312  3.1100000000000E+00  0.0000000000000E+00  0.0000000000000E+00
313  3.1200000000000E+00  0.0000000000000E+00  0.0000000000000E+00
314  3.1300000000000E+00  0.0000000000000E+00  0.0000000000000E+00
315  3.1400000000000E+00  0.0000000000000E+00  0.0000000000000E+00
316  3.1500000000000E+00  0.0000000000000E+00  0.0000000000000E+00
317  3.1600000000000E+00  0.0000000000000E+00  0.0000000000000E+00
318  3.1700000000000E+00  0.0000000000000E+00  0.0000000000000E+00
319  3.1800000000000E+00  0.0000000000000E+00  0.0000000000000E+00
320  3.1900000000000E+00  0.0000000000000E+00  0.0000000000000E+00
321  3.2000000000000E+00  0.0000000000000E+00  0.0000000000000E+00
322  3.2100000000000E+00  0.0000000000000E+00  0.0000000000000E+00
323  3.2200000000000E+00  0.0000000000000E+00  0.0000000000000E+00
324  3.2300000000000E+00  0.0000000000000E+00  0.0000000000000E+00
325  3.2400000000000E+00  0.0000000000000E+00  0.0000000000000E+00
326  3.2500000000000E+00  0.0000000000000E+00  0.0000000000000E+00
327  3.2600000000000E+00  0.0000000000000E+00  0.0000000000000E+00
328  3.2700000000000E+00  0.0000000000000E+00  0.0000000000000E+00
329  3.2800000000000E+00  0.0000000000000E+00  0.0000000000000E+00
330  3.2900000000000E+00  0.0000000000000E+00  0.0000000000000E+00
331  3.3000000000000E+00  0.0000000000000E+00  0.0000000000000E+00
332  3.3100000000000E+00  0.0000000000000E+00  0.0000000000000E+00
333  3.3200000000000E+00  0.0000000000000E+00  0.0000000000000E+00
334  3.3300000000000E+00  0.0000000000000E+00  0.0000000000000E+00
335  3.3400000000000E+00  0.0000000000000E+00  0.0000000000000E+00
336  3.3500000000000E+00  0.0000000000000E+00  0.0000000000000E+00
337  3.3600000000000E+00  0.0000000000000E+00  0.0000000000000E+00
338  3.3700000000000E+00  0.0000000000000E+00  0.0000000000000E+00
339  3.3800000000000E+00  0.0000000000000E+00  0.0000000000000E+00
340  3.3900000000000E+00  0.0000000000000E+00  0.0000000000000E+00
341  3.4000000000000E+00  0.0000000000000E+00  0.0000000000000E+00
342  3.4100000000000E+00  0.0000000000000E+00  0.0000000000000E+00
343  3.4200000000000E+00  0.0000000000000E+00  0.0000000000000E+00
344  3.4300000000000E+00  0.0000000000000E+00  0.0000000000000E+00
345  3.4400000000000E+00  0.0000000000000E+00  0.0000000000000E+00
346  3.4500000000000E+00  0.0000000000000E+00  0.0000000000000E+00
347  3.4600000000000E+00  0.0000000000000E+00  0.0000000000000E+00
348  3.4700000000000E+00  0.0000000000000E+00  0.0000000000000E+00
349  3.4800000000000E+00  0.0000000000000E+00  0.0000000000000E+00
350  3.4900000000000E+00  0.0000000000000E+00  0.0000000000000E+00
351  3.5000000000000E+00  0.0000000000000E+00  0.0000000000000E+00
352  3.5100000000000E+00  0.0000000000000E+00  0.0000000000000E+00
353  3.5200000000000E+00  0.0000000000000E+00  0.0000000000000E+00
354  3.5300000000000E+00  0.0000000000000E+00  0.0000000000000E+00
355  3.5400000000000E+00  0.0000000000000E+00  0.0000000000000E+00
356  3.5500000000000E+00  0.0000000000000E+00  0.0000000000000E+00
357  3.5600000000000E+00  0.0000000000000E+00  0.0000000000000E+00
358  3.5700000000000E+00  0.0000000000000E+00  0.0000000000000E+00
359  3.5800000000000E+00  0.0000000000000E+00  0.0000000000000E+00
360  3.5900000000000E+00  0.0000000000000E+00  0.0000000000000E+00
361  3.6000000000000E+00  0.0000000000000E+00  0.0000000000000E+00
362  3.6100000000000E+00  0.0000000000000E+00  0.0000000000000E+00
363  3.6200000000000E+00  0.0000000000000E+00  0.0000000000000E+00
364  3.6300000000000E+00  0.0000000000000E+00  0.0000000000000E+00
365  3.6400000000000E+00  0.0000000000000E+00  0.0000000000000E+00
366  3.6500000000000E+00  0.0000000000000E+00  0.0000000000000E+00
367  3.6600000000000E+00  0.0000000000000E+00  0.0000000000000E+00
368  3.6700000000000E+00  0.0000000000000E+00  0.0000000000000E+00
369  3.6800000000000E+00  0.0000000000000E+00  0.0000000000000E+00
370  3.6900000000000E+00  0.0000000000000E+00  0.0000000000000E+00
371  3.7000000000000E+00  0.0000000000000E+00  0.0000000000000E+00
372  3.7100000000000E+00  0.0000000000000E+00  0.0000000000000E+00
373  3.7200000000000E+00  0.0000000000000E+00  0.0000000000000E+00
374  3.7300000000000E+00  0.0000000000000E+00  0.0000000000000E+00
375  3.7400000000000E+00  0.0000000000000E+00  0.0000000000000E+00
376  3.7500000000000E+00  0.0000000000000E+00  0.0000000000000E+00
377  3.7600000000000E+00  0.0000000000000E+00  0.0000000000000E+00
378  3.7700000000000E+00  0.0000000000000E+00  0.0000000000000E+00
379  3.7800000000000E+00  0.0000000000000E+00  0.0000000000000E+00
380  3.7900000000000E+00  0.0000000000000E+00  0.0000000000000E+00
381  3.8000000000000E+00  0.0000000000000E+00  0.0000000000000E+00
382  3.8100000000000E+00  0.0000000000000E+00  0.0000000000000E+00
383  3.8200000000000E+00  0.0000000000000E+00  0.0000000000000E+00
384  3.8300000000000E+00  0.0000000000000E+00  0.0000000000000E+00
385  3.8400000000000E+00  0.0000000000000E+00  0.0000000000000E+00
386  3.8500000000000E+00  0.0000000000000E+00  0.0000000000000E+00
387  3.8600000000000E+00  0.0000000000000E+00  0.0000000000000E+00
388  3.8700000000000E+00  0.0000000000000E+00  0.0000000000000E+00
389  3.8800000000000E+00  0.0000000000000E+00  0.0000000000000E+00
390  3.8900000000000E+00  0.0000000000000E+00  0.0000000000000E+00
391  3.9000000000000E+00  0.0000000000000E+00  0.0000000000000E+00
392  3.9100000000000E+00  0.0000000000000E+00  0.0000000000000E+00
393  3.9200000000000E+00  0.0000000000000E+00  0.0000000000000E+00
394  3.9300000000000E+00  0.0000000000000E+00  0.0000000000000E+00
395  3.9400000000000E+00  0.0000000000000E+00  0.0000000000000E+00
396  3.9500000000000E+00  0.0000000000000E+00  0.0000000000000E+00
397  3.9600000000000E+00  0.0000000000000E+00  0.0000000000000E+00
398  3.9700000000000E+00  0.0000000000000E+00  0.0000000000000E+00
399  3.9800000000000E+00  0.0000000000000E+00  0.0000000000000E+00
400  3.9900000000000E+00  0.0000000000000E+00  0.0000000000000E+00
1                        -6.7437181136997E+00 -2.4073650929650E+00
1  0.0000000000000E+00  5.0883489088882E-10 -6.6154928757278E-10
2  1.0000000000000E-02  2.2080919807200E-03 -9.8866469130891E-04
3  2.0000000000000E-02  8.8210943347049E-03 -3.9453327349772E-03
4  3.0000000000000E-02  1.9805242218177E-02 -8.8420867389112E-03
5  4.0000000000000E-02  3.5104447032200E-02 -1.5632599702030E-02
6  5.0000000000000E-02  5.4640574718167E-02 -2.4252436793020E-02
7  6.0000000000000E-02  7.8313833543781E-02 -3.4619475446590E-02
8  7.0000000000000E-02  1.0600326955956E-01 -4.6634441396237E-02
9  8.0000000000000E-02  1.3756736739703E-01 -6.0181557600990E-02
10  9.0000000000000E-02  1.7284475357938E-01 -7.5129302375941E-02
11  1.0000000000000E-01  2.1165499902485E-01 -9.1331272405753E-02
12  1.1000000000000E-01  2.5379951694521E-01 -1.0862714570978E-01
13  1.2000000000000E-01  2.9906255187752E-01 -1.2684373903987E-01
14  1.3000000000000E-01  3.4721225513889E-01 -1.4579615363040E-01
15  1.4000000000000E-01  3.9800184156395E-01 -1.6528900268740E-01
16  1.5000000000000E-01  4.5117082197382E-01 -1.8511771350263E-01
17  1.6000000000000E-01  5.0644630543636E-01 -2.0506989661193E-01
18  1.7000000000000E-01  5.6354436501220E-01 -2.2492677398790E-01
19  1.8000000000000E-01  6.2217146034061E-01 -2.4446465786702E-01
20  1.9000000000000E-01  6.8202591010690E-01 -2.6345647146392E-01
21  2.0000000000000E-01  7.4279940714892E-01 -2.8167330252243E-01
22  2.1000000000000E-01  8.0417856870769E-01 -2.9888598039655E-01
23  2.2000000000000E-01  8.6584651410673E-01 -3.1486666714666E-01
24  2.3000000000000E-01  9.2748446195874E-01 -3.2939045297924E-01
25  2.4000000000000E-01  9.8877333884802E-01 -3.4223694625338E-01
26  2.5000000000000E-01  1.0493953913240E+00 -3.5319184822564E-01
27  2.6000000000000E-01  1.1090357929670E+00 -3.6204850270880E-01
28  2.7000000000000E-01  1.1673842382528E+00 -3.6860941087898E-01
29  2.8000000000000E-01  1.2241365149487E+00 -3.7268770158151E-01
30  2.9000000000000E-01  1.2789960468227E+00 -3.7410854765894E-01
31  3.0000000000000E-01  1.3316753985365E+00 -3.7271051905418E-01
32  3.1000000000000E-01  1.3818977347295E+00 -3.6834686372863E-01
33  3.2000000000000E-01  1.4293982254751E+00 -3.6088670777863E-01
34  3.3000000000000E-01  1.4739253905134E+00 -3.5021616653182E-01
35  3.4000000000000E-01  1.5152423749277E+00 -3.3623935885859E-01
36  3.5000000000000E-01  1.5531281492376E+00 -3.1887931743938E-01
37  3.6000000000000E-01  1.5873786272349E+00 -2.9807878828572E-01
38  3.7000000000000E-01  1.6178076952725E+00 -2.7380091341831E-01
39  3.8000000000000E-01  1.6442481471526E+00 -2.4602979125671E-01
40  3.9000000000000E-01  1.6665525192276E+00 -2.1477090997031E-01
41  4.0000000000000E-01  1.6845938208310E+00 -1.8005144977362E-01
42  4.1000000000000E-01  1.6982661556999E+00 -1.4192045091990E-01
43  4.2000000000000E-01  1.7074852306196E+00 -1.0044884494826E-01