Mg    ONCVPSP-3.2.3.1  r_core=   1.16056   1.56380
12.0000     10.0000      170504    zatom,zion,pspd
8      11   1     4   400     0    pspcod,pspxc,lmax,lloc,mmax,r2well
3.99000000  0.00000000  0.00000000    rchrg fchrg qchrg
2     2     0     0     0    nproj
1     1           extension_switch
0                         2.2500052854734E+00 -8.0862969215334E-01
1  0.0000000000000E+00 -2.1745261147288E-08 -1.1470967509197E-09
2  1.0000000000000E-02  1.2341231334992E-01  3.1878944476954E-02
3  2.0000000000000E-02  2.4592865210121E-01  6.3763605322664E-02
4  3.0000000000000E-02  3.6666571116818E-01  9.5659855162580E-02
5  4.0000000000000E-02  4.8476526664245E-01  1.2757386835715E-01
6  5.0000000000000E-02  5.9940607751588E-01  1.5951224522819E-01
7  6.0000000000000E-02  7.0981503675131E-01  1.9148210516230E-01
8  7.0000000000000E-02  8.1527734774226E-01  2.2349113960551E-01
9  8.0000000000000E-02  9.1514552394828E-01  2.5554761711079E-01
10  9.0000000000000E-02  1.0088470357408E+00  2.8766033398079E-01
11  1.0000000000000E-01  1.0958904586554E+00  3.1983850563018E-01
12  1.1000000000000E-01  1.1758700106397E+00  3.5209159553550E-01
13  1.2000000000000E-01  1.2484684017588E+00  3.8442908050407E-01
14  1.3000000000000E-01  1.3134579573624E+00  4.1686015293103E-01
15  1.4000000000000E-01  1.3707000140843E+00  4.4939336267784E-01
16  1.5000000000000E-01  1.4201426263618E+00  4.8203620314699E-01
17  1.6000000000000E-01  1.4618166585717E+00  5.1479464799954E-01
18  1.7000000000000E-01  1.4958303735249E+00  5.4767264671484E-01
19  1.8000000000000E-01  1.5223626611380E+00  5.8067158878280E-01
20  1.9000000000000E-01  1.5416550808533E+00  6.1378974770544E-01
21  2.0000000000000E-01  1.5540029171336E+00  6.4702171713002E-01
22  2.1000000000000E-01  1.5597454685154E+00  6.8035785230815E-01
23  2.2000000000000E-01  1.5592558067947E+00  7.1378373064964E-01
24  2.3000000000000E-01  1.5529302535465E+00  7.4727964539562E-01
25  2.4000000000000E-01  1.5411778261191E+00  7.8082014636267E-01
26  2.5000000000000E-01  1.5244099043523E+00  8.1437364130226E-01
27  2.6000000000000E-01  1.5030303625701E+00  8.4790207068265E-01
28  2.7000000000000E-01  1.4774263990318E+00  8.8136066764284E-01
29  2.8000000000000E-01  1.4479602772588E+00  9.1469781351032E-01
30  2.9000000000000E-01  1.4149621708864E+00  9.4785499764026E-01
31  3.0000000000000E-01  1.3787242764348E+00  9.8076688845680E-01
32  3.1000000000000E-01  1.3394963272559E+00  1.0133615204943E+00
33  3.2000000000000E-01  1.2974826076064E+00  1.0455605999920E+00
34  3.3000000000000E-01  1.2528405291051E+00  1.0772799292369E+00
35  3.4000000000000E-01  1.2056807935767E+00  1.1084299474242E+00
36  3.5000000000000E-01  1.1560691273675E+00  1.1389163833749E+00
37  3.6000000000000E-01  1.1040295335097E+00  1.1686410130517E+00
38  3.7000000000000E-01  1.0495489705336E+00  1.1975025125243E+00
39  3.8000000000000E-01  9.9258333113162E-01  1.2253973948836E+00
40  3.9000000000000E-01  9.3306456112004E-01  1.2522210176511E+00
41  4.0000000000000E-01  8.7090872998300E-01  1.2778686455264E+00
42  4.1000000000000E-01  8.0602483942235E-01  1.3022365518823E+00
43  4.2000000000000E-01  7.3832413637843E-01  1.3252231413167E+00
44  4.3000000000000E-01  6.6772968242238E-01  1.3467300748029E+00
45  4.4000000000000E-01  5.9418592262465E-01  1.3666633785918E+00
46  4.5000000000000E-01  5.1766799422325E-01  1.3849345180021E+00
47  4.6000000000000E-01  4.3819051875467E-01  1.4014614176113E+00
48  4.7000000000000E-01  3.5581563074194E-01  1.4161694101145E+00
49  4.8000000000000E-01  2.7066001138602E-01  1.4289920972454E+00
50  4.9000000000000E-01  1.8290071667421E-01  1.4398721076335E+00
51  5.0000000000000E-01  9.2779615467635E-02  1.4487617382710E+00
52  5.1000000000000E-01  6.0628388347040E-04  1.4556234683564E+00
53  5.2000000000000E-01 -9.3240762987093E-02  1.4604303366175E+00
54  5.3000000000000E-01 -1.8831458307693E-01  1.4631661757567E+00
55  5.4000000000000E-01 -2.8410210388893E-01  1.4638257003454E+00
56  5.5000000000000E-01 -3.8002820269786E-01  1.4624144472736E+00
57  5.6000000000000E-01 -4.7546152734172E-01  1.4589485706764E+00
58  5.7000000000000E-01 -5.6972197283483E-01  1.4534544960422E+00
59  5.8000000000000E-01 -6.6208968866696E-01  1.4459684409192E+00
60  5.9000000000000E-01 -7.5181545379970E-01  1.4365358121925E+00
61  6.0000000000000E-01 -8.3813222157218E-01  1.4252104922801E+00
62  6.1000000000000E-01 -9.2026760619283E-01  1.4120540287057E+00
63  6.2000000000000E-01 -9.9745705661869E-01  1.3971347433422E+00
64  6.3000000000000E-01 -1.0689574432757E+00  1.3805267791055E+00
65  6.4000000000000E-01 -1.1340607686832E+00  1.3623091030079E+00
66  6.5000000000000E-01 -1.1921077049641E+00  1.3425644852147E+00
67  6.6000000000000E-01 -1.2425006598080E+00  1.3213784740742E+00
68  6.7000000000000E-01 -1.2847160776570E+00  1.2988383870007E+00
69  6.8000000000000E-01 -1.3183156948231E+00  1.2750323365862E+00
70  6.9000000000000E-01 -1.3429564856118E+00  1.2500483104022E+00
71  7.0000000000000E-01 -1.3583990608824E+00  1.2239733216617E+00
72  7.1000000000000E-01 -1.3645143106475E+00  1.1968926462475E+00
73  7.2000000000000E-01 -1.3612881173269E+00  1.1688891596362E+00
74  7.3000000000000E-01 -1.3488240055688E+00  1.1400427849845E+00
75  7.4000000000000E-01 -1.3273436373857E+00  1.1104300611421E+00
76  7.5000000000000E-01 -1.2971851063734E+00  1.0801238366928E+00
77  7.6000000000000E-01 -1.2587990317842E+00  1.0491930933161E+00
78  7.7000000000000E-01 -1.2127425002902E+00  1.0177028989095E+00
79  7.8000000000000E-01 -1.1596709499746E+00  9.8571448805721E-01
80  7.9000000000000E-01 -1.1003281361516E+00  9.5328546463570E-01
81  8.0000000000000E-01 -1.0355343610368E+00  9.2047011868119E-01
82  8.1000000000000E-01 -9.6617318813702E-01  8.8731984715748E-01
83  8.2000000000000E-01 -8.9317689658790E-01  8.5388366601551E-01
84  8.3000000000000E-01 -8.1751095975055E-01  8.2020879897396E-01
85  8.4000000000000E-01 -7.4015785549606E-01  7.8634132681707E-01
86  8.5000000000000E-01 -6.6210053219930E-01  7.5232687973762E-01
87  8.6000000000000E-01 -5.8430586411571E-01  7.1821135437594E-01
88  8.7000000000000E-01 -5.0770843226019E-01  6.8404163674020E-01
89  8.8000000000000E-01 -4.3319496204113E-01  6.4986631214690E-01
90  8.9000000000000E-01 -3.6158973677876E-01  6.1573634369543E-01
91  9.0000000000000E-01 -2.9364128707498E-01  5.8170570157653E-01
92  9.1000000000000E-01 -2.3001063017571E-01  5.4783192669313E-01
93  9.2000000000000E-01 -1.7126130150350E-01  5.1417661361714E-01
94  9.3000000000000E-01 -1.1785138310301E-01  4.8080579978058E-01
95  9.4000000000000E-01 -7.0127691625493E-02  4.4779024996264E-01
96  9.5000000000000E-01 -2.8322242580304E-02  4.1520562753508E-01
97  9.6000000000000E-01  7.4489411108148E-03  3.8313254651378E-01
98  9.7000000000000E-01  3.7184658613838E-02  3.5165650117160E-01
99  9.8000000000000E-01  6.0995032296900E-02  3.2086767274901E-01
100  9.9000000000000E-01  7.9095764671443E-02  2.9086061557572E-01
101  1.0000000000000E+00  9.1800283492209E-02  2.6173382757846E-01
102  1.0100000000000E+00  9.9509955299475E-02  2.3358921282720E-01
103  1.0200000000000E+00  1.0270258894688E-01  2.0653144610023E-01
104  1.0300000000000E+00  1.0191948921138E-01  1.8066725164631E-01
105  1.0400000000000E+00  9.7751352964985E-02  1.5610461019546E-01
106  1.0500000000000E+00  9.0823326812235E-02  1.3295190983495E-01
107  1.0600000000000E+00  8.1779563609660E-02  1.1131705748827E-01
108  1.0700000000000E+00  7.1267631139636E-02  9.1306569154576E-02
109  1.0800000000000E+00  5.9923114131192E-02  7.3024653373473E-02
110  1.0900000000000E+00  4.8354818725222E-02  5.6572320169063E-02
111  1.1000000000000E+00  3.7130614181034E-02  4.2046457349300E-02
112  1.1100000000000E+00  2.6765556196212E-02  2.9539226440129E-02
113  1.1200000000000E+00  1.7707303423837E-02  1.9136589385815E-02
114  1.1300000000000E+00  1.0322720654873E-02  1.0918566278061E-02
115  1.1400000000000E+00  4.8357491393039E-03  4.9123782197195E-03
116  1.1500000000000E+00  1.5836484695865E-03  1.3251916800963E-03
117  1.1600000000000E+00  3.5253253415619E-04 -2.0625927949892E-05
118  1.1700000000000E+00  3.0327603181458E-05 -9.1236639411213E-05
119  1.1800000000000E+00 -2.8644711148197E-06  3.9483678935549E-05
120  1.1900000000000E+00  8.3495091621528E-07 -2.6875951990563E-06
121  1.2000000000000E+00  8.9939935032097E-07 -4.1374816296831E-06
122  1.2100000000000E+00 -9.0776659392419E-07  1.3542011549229E-07
123  1.2200000000000E+00  0.0000000000000E+00  0.0000000000000E+00
124  1.2300000000000E+00  0.0000000000000E+00  0.0000000000000E+00
125  1.2400000000000E+00  0.0000000000000E+00  0.0000000000000E+00
126  1.2500000000000E+00  0.0000000000000E+00  0.0000000000000E+00
127  1.2600000000000E+00  0.0000000000000E+00  0.0000000000000E+00
128  1.2700000000000E+00  0.0000000000000E+00  0.0000000000000E+00
129  1.2800000000000E+00  0.0000000000000E+00  0.0000000000000E+00
130  1.2900000000000E+00  0.0000000000000E+00  0.0000000000000E+00
131  1.3000000000000E+00  0.0000000000000E+00  0.0000000000000E+00
132  1.3100000000000E+00  0.0000000000000E+00  0.0000000000000E+00
133  1.3200000000000E+00  0.0000000000000E+00  0.0000000000000E+00
134  1.3300000000000E+00  0.0000000000000E+00  0.0000000000000E+00
135  1.3400000000000E+00  0.0000000000000E+00  0.0000000000000E+00
136  1.3500000000000E+00  0.0000000000000E+00  0.0000000000000E+00
137  1.3600000000000E+00  0.0000000000000E+00  0.0000000000000E+00
138  1.3700000000000E+00  0.0000000000000E+00  0.0000000000000E+00
139  1.3800000000000E+00  0.0000000000000E+00  0.0000000000000E+00
140  1.3900000000000E+00  0.0000000000000E+00  0.0000000000000E+00
141  1.4000000000000E+00  0.0000000000000E+00  0.0000000000000E+00
142  1.4100000000000E+00  0.0000000000000E+00  0.0000000000000E+00
143  1.4200000000000E+00  0.0000000000000E+00  0.0000000000000E+00
144  1.4300000000000E+00  0.0000000000000E+00  0.0000000000000E+00
145  1.4400000000000E+00  0.0000000000000E+00  0.0000000000000E+00
146  1.4500000000000E+00  0.0000000000000E+00  0.0000000000000E+00
147  1.4600000000000E+00  0.0000000000000E+00  0.0000000000000E+00
148  1.4700000000000E+00  0.0000000000000E+00  0.0000000000000E+00
149  1.4800000000000E+00  0.0000000000000E+00  0.0000000000000E+00
150  1.4900000000000E+00  0.0000000000000E+00  0.0000000000000E+00
151  1.5000000000000E+00  0.0000000000000E+00  0.0000000000000E+00
152  1.5100000000000E+00  0.0000000000000E+00  0.0000000000000E+00
153  1.5200000000000E+00  0.0000000000000E+00  0.0000000000000E+00
154  1.5300000000000E+00  0.0000000000000E+00  0.0000000000000E+00
155  1.5400000000000E+00  0.0000000000000E+00  0.0000000000000E+00
156  1.5500000000000E+00  0.0000000000000E+00  0.0000000000000E+00
157  1.5600000000000E+00  0.0000000000000E+00  0.0000000000000E+00
158  1.5700000000000E+00  0.0000000000000E+00  0.0000000000000E+00
159  1.5800000000000E+00  0.0000000000000E+00  0.0000000000000E+00
160  1.5900000000000E+00  0.0000000000000E+00  0.0000000000000E+00
161  1.6000000000000E+00  0.0000000000000E+00  0.0000000000000E+00
162  1.6100000000000E+00  0.0000000000000E+00  0.0000000000000E+00
163  1.6200000000000E+00  0.0000000000000E+00  0.0000000000000E+00
164  1.6300000000000E+00  0.0000000000000E+00  0.0000000000000E+00
165  1.6400000000000E+00  0.0000000000000E+00  0.0000000000000E+00
166  1.6500000000000E+00  0.0000000000000E+00  0.0000000000000E+00
167  1.6600000000000E+00  0.0000000000000E+00  0.0000000000000E+00
168  1.6700000000000E+00  0.0000000000000E+00  0.0000000000000E+00
169  1.6800000000000E+00  0.0000000000000E+00  0.0000000000000E+00
170  1.6900000000000E+00  0.0000000000000E+00  0.0000000000000E+00
171  1.7000000000000E+00  0.0000000000000E+00  0.0000000000000E+00
172  1.7100000000000E+00  0.0000000000000E+00  0.0000000000000E+00
173  1.7200000000000E+00  0.0000000000000E+00  0.0000000000000E+00
174  1.7300000000000E+00  0.0000000000000E+00  0.0000000000000E+00
175  1.7400000000000E+00  0.0000000000000E+00  0.0000000000000E+00
176  1.7500000000000E+00  0.0000000000000E+00  0.0000000000000E+00
177  1.7600000000000E+00  0.0000000000000E+00  0.0000000000000E+00
178  1.7700000000000E+00  0.0000000000000E+00  0.0000000000000E+00
179  1.7800000000000E+00  0.0000000000000E+00  0.0000000000000E+00
180  1.7900000000000E+00  0.0000000000000E+00  0.0000000000000E+00
181  1.8000000000000E+00  0.0000000000000E+00  0.0000000000000E+00
182  1.8100000000000E+00  0.0000000000000E+00  0.0000000000000E+00
183  1.8200000000000E+00  0.0000000000000E+00  0.0000000000000E+00
184  1.8300000000000E+00  0.0000000000000E+00  0.0000000000000E+00
185  1.8400000000000E+00  0.0000000000000E+00  0.0000000000000E+00
186  1.8500000000000E+00  0.0000000000000E+00  0.0000000000000E+00
187  1.8600000000000E+00  0.0000000000000E+00  0.0000000000000E+00
188  1.8700000000000E+00  0.0000000000000E+00  0.0000000000000E+00
189  1.8800000000000E+00  0.0000000000000E+00  0.0000000000000E+00
190  1.8900000000000E+00  0.0000000000000E+00  0.0000000000000E+00
191  1.9000000000000E+00  0.0000000000000E+00  0.0000000000000E+00
192  1.9100000000000E+00  0.0000000000000E+00  0.0000000000000E+00
193  1.9200000000000E+00  0.0000000000000E+00  0.0000000000000E+00
194  1.9300000000000E+00  0.0000000000000E+00  0.0000000000000E+00
195  1.9400000000000E+00  0.0000000000000E+00  0.0000000000000E+00
196  1.9500000000000E+00  0.0000000000000E+00  0.0000000000000E+00
197  1.9600000000000E+00  0.0000000000000E+00  0.0000000000000E+00
198  1.9700000000000E+00  0.0000000000000E+00  0.0000000000000E+00
199  1.9800000000000E+00  0.0000000000000E+00  0.0000000000000E+00
200  1.9900000000000E+00  0.0000000000000E+00  0.0000000000000E+00
201  2.0000000000000E+00  0.0000000000000E+00  0.0000000000000E+00
202  2.0100000000000E+00  0.0000000000000E+00  0.0000000000000E+00
203  2.0200000000000E+00  0.0000000000000E+00  0.0000000000000E+00
204  2.0300000000000E+00  0.0000000000000E+00  0.0000000000000E+00
205  2.0400000000000E+00  0.0000000000000E+00  0.0000000000000E+00
206  2.0500000000000E+00  0.0000000000000E+00  0.0000000000000E+00
207  2.0600000000000E+00  0.0000000000000E+00  0.0000000000000E+00
208  2.0700000000000E+00  0.0000000000000E+00  0.0000000000000E+00
209  2.0800000000000E+00  0.0000000000000E+00  0.0000000000000E+00
210  2.0900000000000E+00  0.0000000000000E+00  0.0000000000000E+00
211  2.1000000000000E+00  0.0000000000000E+00  0.0000000000000E+00
212  2.1100000000000E+00  0.0000000000000E+00  0.0000000000000E+00
213  2.1200000000000E+00  0.0000000000000E+00  0.0000000000000E+00
214  2.1300000000000E+00  0.0000000000000E+00  0.0000000000000E+00
215  2.1400000000000E+00  0.0000000000000E+00  0.0000000000000E+00
216  2.1500000000000E+00  0.0000000000000E+00  0.0000000000000E+00
217  2.1600000000000E+00  0.0000000000000E+00  0.0000000000000E+00
218  2.1700000000000E+00  0.0000000000000E+00  0.0000000000000E+00
219  2.1800000000000E+00  0.0000000000000E+00  0.0000000000000E+00
220  2.1900000000000E+00  0.0000000000000E+00  0.0000000000000E+00
221  2.2000000000000E+00  0.0000000000000E+00  0.0000000000000E+00
222  2.2100000000000E+00  0.0000000000000E+00  0.0000000000000E+00
223  2.2200000000000E+00  0.0000000000000E+00  0.0000000000000E+00
224  2.2300000000000E+00  0.0000000000000E+00  0.0000000000000E+00
225  2.2400000000000E+00  0.0000000000000E+00  0.0000000000000E+00
226  2.2500000000000E+00  0.0000000000000E+00  0.0000000000000E+00
227  2.2600000000000E+00  0.0000000000000E+00  0.0000000000000E+00
228  2.2700000000000E+00  0.0000000000000E+00  0.0000000000000E+00
229  2.2800000000000E+00  0.0000000000000E+00  0.0000000000000E+00
230  2.2900000000000E+00  0.0000000000000E+00  0.0000000000000E+00
231  2.3000000000000E+00  0.0000000000000E+00  0.0000000000000E+00
232  2.3100000000000E+00  0.0000000000000E+00  0.0000000000000E+00
233  2.3200000000000E+00  0.0000000000000E+00  0.0000000000000E+00
234  2.3300000000000E+00  0.0000000000000E+00  0.0000000000000E+00
235  2.3400000000000E+00  0.0000000000000E+00  0.0000000000000E+00
236  2.3500000000000E+00  0.0000000000000E+00  0.0000000000000E+00
237  2.3600000000000E+00  0.0000000000000E+00  0.0000000000000E+00
238  2.3700000000000E+00  0.0000000000000E+00  0.0000000000000E+00
239  2.3800000000000E+00  0.0000000000000E+00  0.0000000000000E+00
240  2.3900000000000E+00  0.0000000000000E+00  0.0000000000000E+00
241  2.4000000000000E+00  0.0000000000000E+00  0.0000000000000E+00
242  2.4100000000000E+00  0.0000000000000E+00  0.0000000000000E+00
243  2.4200000000000E+00  0.0000000000000E+00  0.0000000000000E+00
244  2.4300000000000E+00  0.0000000000000E+00  0.0000000000000E+00
245  2.4400000000000E+00  0.0000000000000E+00  0.0000000000000E+00
246  2.4500000000000E+00  0.0000000000000E+00  0.0000000000000E+00
247  2.4600000000000E+00  0.0000000000000E+00  0.0000000000000E+00
248  2.4700000000000E+00  0.0000000000000E+00  0.0000000000000E+00
249  2.4800000000000E+00  0.0000000000000E+00  0.0000000000000E+00
250  2.4900000000000E+00  0.0000000000000E+00  0.0000000000000E+00
251  2.5000000000000E+00  0.0000000000000E+00  0.0000000000000E+00
252  2.5100000000000E+00  0.0000000000000E+00  0.0000000000000E+00
253  2.5200000000000E+00  0.0000000000000E+00  0.0000000000000E+00
254  2.5300000000000E+00  0.0000000000000E+00  0.0000000000000E+00
255  2.5400000000000E+00  0.0000000000000E+00  0.0000000000000E+00
256  2.5500000000000E+00  0.0000000000000E+00  0.0000000000000E+00
257  2.5600000000000E+00  0.0000000000000E+00  0.0000000000000E+00
258  2.5700000000000E+00  0.0000000000000E+00  0.0000000000000E+00
259  2.5800000000000E+00  0.0000000000000E+00  0.0000000000000E+00
260  2.5900000000000E+00  0.0000000000000E+00  0.0000000000000E+00
261  2.6000000000000E+00  0.0000000000000E+00  0.0000000000000E+00
262  2.6100000000000E+00  0.0000000000000E+00  0.0000000000000E+00
263  2.6200000000000E+00  0.0000000000000E+00  0.0000000000000E+00
264  2.6300000000000E+00  0.0000000000000E+00  0.0000000000000E+00
265  2.6400000000000E+00  0.0000000000000E+00  0.0000000000000E+00
266  2.6500000000000E+00  0.0000000000000E+00  0.0000000000000E+00
267  2.6600000000000E+00  0.0000000000000E+00  0.0000000000000E+00
268  2.6700000000000E+00  0.0000000000000E+00  0.0000000000000E+00
269  2.6800000000000E+00  0.0000000000000E+00  0.0000000000000E+00
270  2.6900000000000E+00  0.0000000000000E+00  0.0000000000000E+00
271  2.7000000000000E+00  0.0000000000000E+00  0.0000000000000E+00
272  2.7100000000000E+00  0.0000000000000E+00  0.0000000000000E+00
273  2.7200000000000E+00  0.0000000000000E+00  0.0000000000000E+00
274  2.7300000000000E+00  0.0000000000000E+00  0.0000000000000E+00
275  2.7400000000000E+00  0.0000000000000E+00  0.0000000000000E+00
276  2.7500000000000E+00  0.0000000000000E+00  0.0000000000000E+00
277  2.7600000000000E+00  0.0000000000000E+00  0.0000000000000E+00
278  2.7700000000000E+00  0.0000000000000E+00  0.0000000000000E+00
279  2.7800000000000E+00  0.0000000000000E+00  0.0000000000000E+00
280  2.7900000000000E+00  0.0000000000000E+00  0.0000000000000E+00
281  2.8000000000000E+00  0.0000000000000E+00  0.0000000000000E+00
282  2.8100000000000E+00  0.0000000000000E+00  0.0000000000000E+00
283  2.8200000000000E+00  0.0000000000000E+00  0.0000000000000E+00
284  2.8300000000000E+00  0.0000000000000E+00  0.0000000000000E+00
285  2.8400000000000E+00  0.0000000000000E+00  0.0000000000000E+00
286  2.8500000000000E+00  0.0000000000000E+00  0.0000000000000E+00
287  2.8600000000000E+00  0.0000000000000E+00  0.0000000000000E+00
288  2.8700000000000E+00  0.0000000000000E+00  0.0000000000000E+00
289  2.8800000000000E+00  0.0000000000000E+00  0.0000000000000E+00
290  2.8900000000000E+00  0.0000000000000E+00  0.0000000000000E+00
291  2.9000000000000E+00  0.0000000000000E+00  0.0000000000000E+00
292  2.9100000000000E+00  0.0000000000000E+00  0.0000000000000E+00
293  2.9200000000000E+00  0.0000000000000E+00  0.0000000000000E+00
294  2.9300000000000E+00  0.0000000000000E+00  0.0000000000000E+00
295  2.9400000000000E+00  0.0000000000000E+00  0.0000000000000E+00
296  2.9500000000000E+00  0.0000000000000E+00  0.0000000000000E+00
297  2.9600000000000E+00  0.0000000000000E+00  0.0000000000000E+00
298  2.9700000000000E+00  0.0000000000000E+00  0.0000000000000E+00
299  2.9800000000000E+00  0.0000000000000E+00  0.0000000000000E+00
300  2.9900000000000E+00  0.0000000000000E+00  0.0000000000000E+00
301  3.0000000000000E+00  0.0000000000000E+00  0.0000000000000E+00
302  3.0100000000000E+00  0.0000000000000E+00  0.0000000000000E+00
303  3.0200000000000E+00  0.0000000000000E+00  0.0000000000000E+00
304  3.0300000000000E+00  0.0000000000000E+00  0.0000000000000E+00
305  3.0400000000000E+00  0.0000000000000E+00  0.0000000000000E+00
306  3.0500000000000E+00  0.0000000000000E+00  0.0000000000000E+00
307  3.0600000000000E+00  0.0000000000000E+00  0.0000000000000E+00
308  3.0700000000000E+00  0.0000000000000E+00  0.0000000000000E+00
309  3.0800000000000E+00  0.0000000000000E+00  0.0000000000000E+00
310  3.0900000000000E+00  0.0000000000000E+00  0.0000000000000E+00
311  3.1000000000000E+00  0.0000000000000E+00  0.0000000000000E+00
312  3.1100000000000E+00  0.0000000000000E+00  0.0000000000000E+00
313  3.1200000000000E+00  0.0000000000000E+00  0.0000000000000E+00
314  3.1300000000000E+00  0.0000000000000E+00  0.0000000000000E+00
315  3.1400000000000E+00  0.0000000000000E+00  0.0000000000000E+00
316  3.1500000000000E+00  0.0000000000000E+00  0.0000000000000E+00
317  3.1600000000000E+00  0.0000000000000E+00  0.0000000000000E+00
318  3.1700000000000E+00  0.0000000000000E+00  0.0000000000000E+00
319  3.1800000000000E+00  0.0000000000000E+00  0.0000000000000E+00
320  3.1900000000000E+00  0.0000000000000E+00  0.0000000000000E+00
321  3.2000000000000E+00  0.0000000000000E+00  0.0000000000000E+00
322  3.2100000000000E+00  0.0000000000000E+00  0.0000000000000E+00
323  3.2200000000000E+00  0.0000000000000E+00  0.0000000000000E+00
324  3.2300000000000E+00  0.0000000000000E+00  0.0000000000000E+00
325  3.2400000000000E+00  0.0000000000000E+00  0.0000000000000E+00
326  3.2500000000000E+00  0.0000000000000E+00  0.0000000000000E+00
327  3.2600000000000E+00  0.0000000000000E+00  0.0000000000000E+00
328  3.2700000000000E+00  0.0000000000000E+00  0.0000000000000E+00
329  3.2800000000000E+00  0.0000000000000E+00  0.0000000000000E+00
330  3.2900000000000E+00  0.0000000000000E+00  0.0000000000000E+00
331  3.3000000000000E+00  0.0000000000000E+00  0.0000000000000E+00
332  3.3100000000000E+00  0.0000000000000E+00  0.0000000000000E+00
333  3.3200000000000E+00  0.0000000000000E+00  0.0000000000000E+00
334  3.3300000000000E+00  0.0000000000000E+00  0.0000000000000E+00
335  3.3400000000000E+00  0.0000000000000E+00  0.0000000000000E+00
336  3.3500000000000E+00  0.0000000000000E+00  0.0000000000000E+00
337  3.3600000000000E+00  0.0000000000000E+00  0.0000000000000E+00
338  3.3700000000000E+00  0.0000000000000E+00  0.0000000000000E+00
339  3.3800000000000E+00  0.0000000000000E+00  0.0000000000000E+00
340  3.3900000000000E+00  0.0000000000000E+00  0.0000000000000E+00
341  3.4000000000000E+00  0.0000000000000E+00  0.0000000000000E+00
342  3.4100000000000E+00  0.0000000000000E+00  0.0000000000000E+00
343  3.4200000000000E+00  0.0000000000000E+00  0.0000000000000E+00
344  3.4300000000000E+00  0.0000000000000E+00  0.0000000000000E+00
345  3.4400000000000E+00  0.0000000000000E+00  0.0000000000000E+00
346  3.4500000000000E+00  0.0000000000000E+00  0.0000000000000E+00
347  3.4600000000000E+00  0.0000000000000E+00  0.0000000000000E+00
348  3.4700000000000E+00  0.0000000000000E+00  0.0000000000000E+00
349  3.4800000000000E+00  0.0000000000000E+00  0.0000000000000E+00
350  3.4900000000000E+00  0.0000000000000E+00  0.0000000000000E+00
351  3.5000000000000E+00  0.0000000000000E+00  0.0000000000000E+00
352  3.5100000000000E+00  0.0000000000000E+00  0.0000000000000E+00
353  3.5200000000000E+00  0.0000000000000E+00  0.0000000000000E+00
354  3.5300000000000E+00  0.0000000000000E+00  0.0000000000000E+00
355  3.5400000000000E+00  0.0000000000000E+00  0.0000000000000E+00
356  3.5500000000000E+00  0.0000000000000E+00  0.0000000000000E+00
357  3.5600000000000E+00  0.0000000000000E+00  0.0000000000000E+00
358  3.5700000000000E+00  0.0000000000000E+00  0.0000000000000E+00
359  3.5800000000000E+00  0.0000000000000E+00  0.0000000000000E+00
360  3.5900000000000E+00  0.0000000000000E+00  0.0000000000000E+00
361  3.6000000000000E+00  0.0000000000000E+00  0.0000000000000E+00
362  3.6100000000000E+00  0.0000000000000E+00  0.0000000000000E+00
363  3.6200000000000E+00  0.0000000000000E+00  0.0000000000000E+00
364  3.6300000000000E+00  0.0000000000000E+00  0.0000000000000E+00
365  3.6400000000000E+00  0.0000000000000E+00  0.0000000000000E+00
366  3.6500000000000E+00  0.0000000000000E+00  0.0000000000000E+00
367  3.6600000000000E+00  0.0000000000000E+00  0.0000000000000E+00
368  3.6700000000000E+00  0.0000000000000E+00  0.0000000000000E+00
369  3.6800000000000E+00  0.0000000000000E+00  0.0000000000000E+00
370  3.6900000000000E+00  0.0000000000000E+00  0.0000000000000E+00
371  3.7000000000000E+00  0.0000000000000E+00  0.0000000000000E+00
372  3.7100000000000E+00  0.0000000000000E+00  0.0000000000000E+00
373  3.7200000000000E+00  0.0000000000000E+00  0.0000000000000E+00
374  3.7300000000000E+00  0.0000000000000E+00  0.0000000000000E+00
375  3.7400000000000E+00  0.0000000000000E+00  0.0000000000000E+00
376  3.7500000000000E+00  0.0000000000000E+00  0.0000000000000E+00
377  3.7600000000000E+00  0.0000000000000E+00  0.0000000000000E+00
378  3.7700000000000E+00  0.0000000000000E+00  0.0000000000000E+00
379  3.7800000000000E+00  0.0000000000000E+00  0.0000000000000E+00
380  3.7900000000000E+00  0.0000000000000E+00  0.0000000000000E+00
381  3.8000000000000E+00  0.0000000000000E+00  0.0000000000000E+00
382  3.8100000000000E+00  0.0000000000000E+00  0.0000000000000E+00
383  3.8200000000000E+00  0.0000000000000E+00  0.0000000000000E+00
384  3.8300000000000E+00  0.0000000000000E+00  0.0000000000000E+00
385  3.8400000000000E+00  0.0000000000000E+00  0.0000000000000E+00
386  3.8500000000000E+00  0.0000000000000E+00  0.0000000000000E+00
387  3.8600000000000E+00  0.0000000000000E+00  0.0000000000000E+00
388  3.8700000000000E+00  0.0000000000000E+00  0.0000000000000E+00
389  3.8800000000000E+00  0.0000000000000E+00  0.0000000000000E+00
390  3.8900000000000E+00  0.0000000000000E+00  0.0000000000000E+00
391  3.9000000000000E+00  0.0000000000000E+00  0.0000000000000E+00
392  3.9100000000000E+00  0.0000000000000E+00  0.0000000000000E+00
393  3.9200000000000E+00  0.0000000000000E+00  0.0000000000000E+00
394  3.9300000000000E+00  0.0000000000000E+00  0.0000000000000E+00
395  3.9400000000000E+00  0.0000000000000E+00  0.0000000000000E+00
396  3.9500000000000E+00  0.0000000000000E+00  0.0000000000000E+00
397  3.9600000000000E+00  0.0000000000000E+00  0.0000000000000E+00
398  3.9700000000000E+00  0.0000000000000E+00  0.0000000000000E+00
399  3.9800000000000E+00  0.0000000000000E+00  0.0000000000000E+00
400  3.9900000000000E+00  0.0000000000000E+00  0.0000000000000E+00
1                        -6.4693573917920E+00 -2.5033129894415E+00
1  0.0000000000000E+00  5.0699378029151E-10 -1.0378449835646E-09
2  1.0000000000000E-02  1.9788265831822E-03 -8.7923074515430E-04
3  2.0000000000000E-02  7.9059305371853E-03 -3.5083584900829E-03
4  3.0000000000000E-02  1.7753230224559E-02 -7.8617546422993E-03
5  4.0000000000000E-02  3.1474075140954E-02 -1.3896920576012E-02
6  5.0000000000000E-02  4.9003473300732E-02 -2.1554809190564E-02
7  6.0000000000000E-02  7.0258407682542E-02 -3.0760271146747E-02
8  7.0000000000000E-02  9.5138239860735E-02 -4.1422621888209E-02
9  8.0000000000000E-02  1.2352519844153E-01 -5.3436324517328E-02
10  9.0000000000000E-02  1.5528494943676E-01 -6.6681782611732E-02
11  1.0000000000000E-01  1.9026724524704E-01 -8.1026236149547E-02
12  1.1000000000000E-01  2.2830664849362E-01 -9.6324752868294E-02
13  1.2000000000000E-01  2.6922332653836E-01 -1.1242130662315E-01
14  1.3000000000000E-01  3.1282391216599E-01 -1.2914993364233E-01
15  1.4000000000000E-01  3.5890242557582E-01 -1.4633595700792E-01
16  1.5000000000000E-01  4.0724125254278E-01 -1.6379726922403E-01
17  1.6000000000000E-01  4.5761217336161E-01 -1.8134566237541E-01
18  1.7000000000000E-01  5.0977743698507E-01 -1.9878819513051E-01
19  1.8000000000000E-01  5.6349087460711E-01 -2.1592858570545E-01
20  1.9000000000000E-01  6.1849904682483E-01 -2.3256861987800E-01
21  2.0000000000000E-01  6.7454241843976E-01 -2.4850956322351E-01
22  2.1000000000000E-01  7.3135655492674E-01 -2.6355356693259E-01
23  2.2000000000000E-01  7.8867333460762E-01 -2.7750505686131E-01
24  2.3000000000000E-01  8.4622217061414E-01 -2.9017209585100E-01
25  2.4000000000000E-01  9.0373123680850E-01 -3.0136770983100E-01
26  2.5000000000000E-01  9.6092869194769E-01 -3.1091116877552E-01
27  2.6000000000000E-01  1.0175438965264E+00 -3.1862921421651E-01
28  2.7000000000000E-01  1.0733086169098E+00 -3.2435722570830E-01
29  2.8000000000000E-01  1.1279582115676E+00 -3.2794031938682E-01
30  2.9000000000000E-01  1.1812327944427E+00 -3.2923437255532E-01
31  3.0000000000000E-01  1.2328783707269E+00 -3.2810696904835E-01
32  3.1000000000000E-01  1.2826479405650E+00 -3.2443826096583E-01
33  3.2000000000000E-01  1.3303025664737E+00 -3.1812174321663E-01
34  3.3000000000000E-01  1.3756124005258E+00 -3.0906493815610E-01
35  3.4000000000000E-01  1.4183576676222E+00 -2.9718998843270E-01
36  3.5000000000000E-01  1.4583296014432E+00 -2.8243415696528E-01
37  3.6000000000000E-01  1.4953313299340E+00 -2.6475023374453E-01
38  3.7000000000000E-01  1.5291787074428E+00 -2.4410684988042E-01
39  3.8000000000000E-01  1.5597010908767E+00 -2.2048869999456E-01
40  3.9000000000000E-01  1.5867420574836E+00 -1.9389667467440E-01
41  4.0000000000000E-01  1.6101600620957E+00 -1.6434790525918E-01
42  4.1000000000000E-01  1.6298290318847E+00 -1.3187572371166E-01
43  4.2000000000000E-01  1.6456388968836E+00 -9.6529540739628E-02