P     ONCVPSP-3.2.3.1  r_core=   1.46089   1.55067   1.70594
15.0000      5.0000      170429    zatom,zion,pspd
8      11   2     4   600     0    pspcod,pspxc,lmax,lloc,mmax,r2well
5.99000000  5.00000000  0.00000000    rchrg fchrg qchrg
2     2     2     0     0    nproj
1     1           extension_switch
0                         6.5987217472880E+00  1.0523413858461E+00
1  0.0000000000000E+00 -1.7843262922757E-08  4.3303683749940E-08
2  1.0000000000000E-02  5.6646201283736E-02 -5.2493920729883E-02
3  2.0000000000000E-02  1.1274394998422E-01 -1.0371210656417E-01
4  3.0000000000000E-02  1.6775599342775E-01 -1.5240594702909E-01
5  4.0000000000000E-02  2.2116724732778E-01 -1.9738051924477E-01
6  5.0000000000000E-02  2.7249530609086E-01 -2.3752003998614E-01
7  6.0000000000000E-02  3.2130027750217E-01 -2.7181167931989E-01
8  7.0000000000000E-02  3.6719373804603E-01 -2.9936724176394E-01
9  8.0000000000000E-02  4.0984662295975E-01 -3.1944226421926E-01
10  9.0000000000000E-02  4.4899588674589E-01 -3.3145213240722E-01
11  1.0000000000000E-01  4.8444979484427E-01 -3.3498487815742E-01
12  1.1000000000000E-01  5.1609173499324E-01 -3.2981038741889E-01
13  1.2000000000000E-01  5.4388246693179E-01 -3.1588582195910E-01
14  1.3000000000000E-01  5.6786076090705E-01 -2.9335713490487E-01
15  1.4000000000000E-01  5.8814240831897E-01 -2.6255664001958E-01
16  1.5000000000000E-01  6.0491762109400E-01 -2.2399667529933E-01
17  1.6000000000000E-01  6.1844686936700E-01 -1.7835948148616E-01
18  1.7000000000000E-01  6.2905523909889E-01 -1.2648349382604E-01
19  1.8000000000000E-01  6.3712542172323E-01 -6.9346319276061E-02
20  1.9000000000000E-01  6.4308947618035E-01 -8.0447398943076E-03
21  2.0000000000000E-01  6.4741952919196E-01  5.6227855061875E-02
22  2.1000000000000E-01  6.5061760183234E-01  1.2220615200721E-01
23  2.2000000000000E-01  6.5320476891135E-01  1.8857920984709E-01
24  2.3000000000000E-01  6.5570987201885E-01  2.5401783503898E-01
25  2.4000000000000E-01  6.5865801699096E-01  3.1720247525227E-01
26  2.5000000000000E-01  6.6255909183464E-01  3.7685105929561E-01
27  2.6000000000000E-01  6.6789654166902E-01  4.3174620983512E-01
28  2.7000000000000E-01  6.7511663298451E-01  4.8076126588116E-01
29  2.8000000000000E-01  6.8461843055425E-01  5.2288457390205E-01
30  2.9000000000000E-01  6.9674469682168E-01  5.5724153932892E-01
31  3.0000000000000E-01  7.1177390578734E-01  5.8311397352516E-01
32  3.1000000000000E-01  7.2991354166992E-01  5.9995632417295E-01
33  3.2000000000000E-01  7.5129482734184E-01  6.0740843845475E-01
34  3.3000000000000E-01  7.7596899923100E-01  6.0530457717942E-01
35  3.4000000000000E-01  8.0390521459369E-01  5.9367847276941E-01
36  3.5000000000000E-01  8.3499014440344E-01  5.7276430331763E-01
37  3.6000000000000E-01  8.6902927121506E-01  5.4299353716516E-01
38  3.7000000000000E-01  9.0574987692195E-01  5.0498768601416E-01
39  3.8000000000000E-01  9.4480567101676E-01  4.5954708780432E-01
40  3.9000000000000E-01  9.8578297647399E-01  4.0763592178349E-01
41  4.0000000000000E-01  1.0282083583741E+00  3.5036373575297E-01
42  4.1000000000000E-01  1.0715575505249E+00  2.8896383780722E-01
43  4.2000000000000E-01  1.1152655082154E+00  2.2476897053881E-01
44  4.3000000000000E-01  1.1587373914126E+00  1.5918474330053E-01
45  4.4000000000000E-01  1.2013602626790E+00  9.3661346517009E-02
46  4.5000000000000E-01  1.2425152682559E+00  2.9664110205131E-02
47  4.6000000000000E-01  1.2815900594756E+00 -3.1356504019219E-02
48  4.7000000000000E-01  1.3179912051704E+00 -8.7994872700161E-02
49  4.8000000000000E-01  1.3511563442000E+00 -1.3891953386682E-01
50  4.9000000000000E-01  1.3805658306769E+00 -1.8290126442877E-01
51  5.0000000000000E-01  1.4057536328866E+00 -2.1883933289123E-01
52  5.1000000000000E-01  1.4263172601441E+00 -2.4578538109672E-01
53  5.2000000000000E-01  1.4419265096601E+00 -2.6296443228768E-01
54  5.3000000000000E-01  1.4523308475736E+00 -2.6979257666953E-01
55  5.4000000000000E-01  1.4573652642405E+00 -2.6589094887354E-01
56  5.5000000000000E-01  1.4569544731839E+00 -2.5109568311336E-01
57  5.6000000000000E-01  1.4511153551326E+00 -2.2546360976474E-01
58  5.7000000000000E-01  1.4399575829226E+00 -1.8927354064639E-01
59  5.8000000000000E-01  1.4236823987011E+00 -1.4302307697111E-01
60  5.9000000000000E-01  1.4025795515638E+00 -8.7420963093089E-02
61  6.0000000000000E-01  1.3770224403057E+00 -2.3375097915564E-02
62  6.1000000000000E-01  1.3474615421656E+00  4.8023596319750E-02
63  6.2000000000000E-01  1.3144162429613E+00  1.2552116443389E-01
64  6.3000000000000E-01  1.2784652168574E+00  2.0772410488647E-01
65  6.4000000000000E-01  1.2402355338473E+00  2.9312591726223E-01
66  6.5000000000000E-01  1.2003906997354E+00  3.8013621083666E-01
67  6.6000000000000E-01  1.1596178562576E+00  4.6711181921693E-01
68  6.7000000000000E-01  1.1186143874178E+00  5.5238932165481E-01
69  6.8000000000000E-01  1.0780741919242E+00  6.3431833851393E-01
70  6.9000000000000E-01  1.0386738903880E+00  7.1129494751816E-01
71  7.0000000000000E-01  1.0010592394588E+00  7.8179455936863E-01
72  7.1000000000000E-01  9.6583202331350E-01  8.4440359610291E-01
73  7.2000000000000E-01  9.3353768581555E-01  8.9784933334696E-01
74  7.3000000000000E-01  9.0465395431242E-01  9.4102729815382E-01
75  7.4000000000000E-01  8.7958068871806E-01  9.7302565672995E-01
76  7.5000000000000E-01  8.5863116748623E-01  9.9314608042879E-01
77  7.6000000000000E-01  8.4202499566135E-01  1.0009206430775E+00
78  7.7000000000000E-01  8.2988279016584E-01  9.9612437613276E-01
79  7.8000000000000E-01  8.2222276387051E-01  9.7878319026501E-01
80  7.9000000000000E-01  8.1895929404221E-01  9.4917695971558E-01
81  8.0000000000000E-01  8.1990352273225E-01  9.0783765851185E-01
82  8.1000000000000E-01  8.2476599744981E-01  8.5554253319955E-01
83  8.2000000000000E-01  8.3316132079209E-01  7.9330239335995E-01
84  8.3000000000000E-01  8.4461473833820E-01  7.2234519697061E-01
85  8.4000000000000E-01  8.5857055582898E-01  6.4409520076297E-01
86  8.5000000000000E-01  8.7440224019908E-01  5.6014803430204E-01
87  8.6000000000000E-01  8.9142402512139E-01  4.7224213881184E-01
88  8.7000000000000E-01  9.0890381104260E-01  3.8222708615256E-01
89  8.8000000000000E-01  9.2607712284703E-01  2.9202935832768E-01
90  8.9000000000000E-01  9.4216186583053E-01  2.0361622213660E-01
91  9.0000000000000E-01  9.5637360305933E-01  1.1895837596768E-01
92  9.1000000000000E-01  9.6794106480295E-01  3.9992075350585E-02
93  9.2000000000000E-01  9.7612159383806E-01 -3.1418539905465E-02
94  9.3000000000000E-01  9.8021622919064E-01 -9.3518191770986E-02
95  9.4000000000000E-01  9.7958413537530E-01 -1.4469556959951E-01
96  9.5000000000000E-01  9.7365609430857E-01 -1.8351610689782E-01
97  9.6000000000000E-01  9.6194679296943E-01 -2.0875178024506E-01
98  9.7000000000000E-01  9.4406566039522E-01 -2.1940733192721E-01
99  9.8000000000000E-01  9.1972603367737E-01 -2.1474238198971E-01
100  9.9000000000000E-01  8.8875246283177E-01 -1.9428896957838E-01
101  1.0000000000000E+00  8.5108599830917E-01 -1.5786414653943E-01
102  1.0100000000000E+00  8.0678734226587E-01 -1.0557733775043E-01
103  1.0200000000000E+00  7.5603778432355E-01 -3.7832279595158E-02
104  1.0300000000000E+00  6.9913788503509E-01  4.4676548099991E-02
105  1.0400000000000E+00  6.3650391085526E-01  1.4097298216733E-01
106  1.0500000000000E+00  5.6866206897815E-01  2.4981360489166E-01
107  1.0600000000000E+00  4.9624063204077E-01  3.6970731652942E-01
108  1.0700000000000E+00  4.1996008273661E-01  4.9893972890943E-01
109  1.0800000000000E+00  3.4062144794529E-01  6.3560196104800E-01
110  1.0900000000000E+00  2.5909302566978E-01  7.7762333568127E-01
111  1.1000000000000E+00  1.7629574090219E-01  9.2280739573630E-01
112  1.1100000000000E+00  9.3187394820933E-02  1.0688705910690E+00
113  1.1200000000000E+00  1.0746092863564E-02  1.2134829345394E+00
114  1.1300000000000E+00 -7.0046845051546E-02  1.3543098836815E+00
115  1.1400000000000E+00 -1.4822417746923E-01  1.4890546767167E+00
116  1.1500000000000E+00 -2.2284991542254E-01  1.6155003342338E+00
117  1.1600000000000E+00 -2.9303605777347E-01  1.7315505439524E+00
118  1.1700000000000E+00 -3.5795857549482E-01  1.8352686646308E+00
119  1.1800000000000E+00 -4.1687233901465E-01  1.9249141014660E+00
120  1.1900000000000E+00 -4.6912470720122E-01  1.9989753657940E+00
121  1.2000000000000E+00 -5.1416752075852E-01  2.0561991914382E+00
122  1.2100000000000E+00 -5.5156726293556E-01  2.0956151296618E+00
123  1.2200000000000E+00 -5.8101318959397E-01  2.1165551409231E+00
124  1.2300000000000E+00 -6.0232327182602E-01  2.1186678026109E+00
125  1.2400000000000E+00 -6.1544782829496E-01  2.1019268353084E+00
126  1.2500000000000E+00 -6.2047075834658E-01  2.0666337332853E+00
127  1.2600000000000E+00 -6.1760835516129E-01  2.0134144521023E+00
128  1.2700000000000E+00 -6.0720570780322E-01  1.9432101786574E+00
129  1.2800000000000E+00 -5.8973072959559E-01  1.8572622790701E+00
130  1.2900000000000E+00 -5.6576593594612E-01  1.7570917295780E+00
131  1.3000000000000E+00 -5.3599810533619E-01  1.6444733614659E+00
132  1.3100000000000E+00 -5.0120599007858E-01  1.5214053316311E+00
133  1.3200000000000E+00 -4.6224632169317E-01  1.3900744216823E+00
134  1.3300000000000E+00 -4.2003834322043E-01  1.2528177377658E+00
135  1.3400000000000E+00 -3.7554714838506E-01  1.1120814997575E+00
136  1.3500000000000E+00 -3.2976614313288E-01  9.7037769519759E-01
137  1.3600000000000E+00 -2.8369892971902E-01  8.3023933593727E-01
138  1.3700000000000E+00 -2.3834096169578E-01  6.9417517300772E-01
139  1.3800000000000E+00 -1.9466128859870E-01  5.6462465247455E-01
140  1.3900000000000E+00 -1.5358474137972E-01  4.4391397440656E-01
141  1.4000000000000E+00 -1.1597487405608E-01  3.3421402893349E-01
142  1.4100000000000E+00 -8.2619667590640E-02  2.3750582502601E-01
143  1.4200000000000E+00 -5.4229320432981E-02  1.5557996662979E-01
144  1.4300000000000E+00 -3.1263484802023E-02  8.9547765075480E-02
145  1.4400000000000E+00 -1.4376168491541E-02  4.1117429957610E-02
146  1.4500000000000E+00 -4.3448366439940E-03  1.2393193643335E-02
147  1.4600000000000E+00 -1.7836070898610E-04  4.7876178899972E-04
148  1.4700000000000E+00  4.5812260117953E-04 -1.3234427568195E-03
149  1.4800000000000E+00 -5.4038852911438E-05  1.5570368635116E-04
150  1.4900000000000E+00 -1.2801399427278E-04  3.6833059030203E-04
151  1.5000000000000E+00  1.9015356374166E-05 -5.4923449596641E-05
152  1.5100000000000E+00  1.7441425378876E-05 -5.0344053405286E-05
153  1.5200000000000E+00  4.1652816565849E-08 -4.2215058355929E-08
154  1.5300000000000E+00  1.6892279366114E-08 -1.7120296248822E-08
155  1.5400000000000E+00  0.0000000000000E+00  0.0000000000000E+00
156  1.5500000000000E+00  0.0000000000000E+00  0.0000000000000E+00
157  1.5600000000000E+00  0.0000000000000E+00  0.0000000000000E+00
158  1.5700000000000E+00  0.0000000000000E+00  0.0000000000000E+00
159  1.5800000000000E+00  0.0000000000000E+00  0.0000000000000E+00
160  1.5900000000000E+00  0.0000000000000E+00  0.0000000000000E+00
161  1.6000000000000E+00  0.0000000000000E+00  0.0000000000000E+00
162  1.6100000000000E+00  0.0000000000000E+00  0.0000000000000E+00
163  1.6200000000000E+00  0.0000000000000E+00  0.0000000000000E+00
164  1.6300000000000E+00  0.0000000000000E+00  0.0000000000000E+00
165  1.6400000000000E+00  0.0000000000000E+00  0.0000000000000E+00
166  1.6500000000000E+00  0.0000000000000E+00  0.0000000000000E+00
167  1.6600000000000E+00  0.0000000000000E+00  0.0000000000000E+00
168  1.6700000000000E+00  0.0000000000000E+00  0.0000000000000E+00
169  1.6800000000000E+00  0.0000000000000E+00  0.0000000000000E+00
170  1.6900000000000E+00  0.0000000000000E+00  0.0000000000000E+00
171  1.7000000000000E+00  0.0000000000000E+00  0.0000000000000E+00
172  1.7100000000000E+00  0.0000000000000E+00  0.0000000000000E+00
173  1.7200000000000E+00  0.0000000000000E+00  0.0000000000000E+00
174  1.7300000000000E+00  0.0000000000000E+00  0.0000000000000E+00
175  1.7400000000000E+00  0.0000000000000E+00  0.0000000000000E+00
176  1.7500000000000E+00  0.0000000000000E+00  0.0000000000000E+00
177  1.7600000000000E+00  0.0000000000000E+00  0.0000000000000E+00
178  1.7700000000000E+00  0.0000000000000E+00  0.0000000000000E+00
179  1.7800000000000E+00  0.0000000000000E+00  0.0000000000000E+00
180  1.7900000000000E+00  0.0000000000000E+00  0.0000000000000E+00
181  1.8000000000000E+00  0.0000000000000E+00  0.0000000000000E+00
182  1.8100000000000E+00  0.0000000000000E+00  0.0000000000000E+00
183  1.8200000000000E+00  0.0000000000000E+00  0.0000000000000E+00
184  1.8300000000000E+00  0.0000000000000E+00  0.0000000000000E+00
185  1.8400000000000E+00  0.0000000000000E+00  0.0000000000000E+00
186  1.8500000000000E+00  0.0000000000000E+00  0.0000000000000E+00
187  1.8600000000000E+00  0.0000000000000E+00  0.0000000000000E+00
188  1.8700000000000E+00  0.0000000000000E+00  0.0000000000000E+00
189  1.8800000000000E+00  0.0000000000000E+00  0.0000000000000E+00
190  1.8900000000000E+00  0.0000000000000E+00  0.0000000000000E+00
191  1.9000000000000E+00  0.0000000000000E+00  0.0000000000000E+00
192  1.9100000000000E+00  0.0000000000000E+00  0.0000000000000E+00
193  1.9200000000000E+00  0.0000000000000E+00  0.0000000000000E+00
194  1.9300000000000E+00  0.0000000000000E+00  0.0000000000000E+00
195  1.9400000000000E+00  0.0000000000000E+00  0.0000000000000E+00
196  1.9500000000000E+00  0.0000000000000E+00  0.0000000000000E+00
197  1.9600000000000E+00  0.0000000000000E+00  0.0000000000000E+00
198  1.9700000000000E+00  0.0000000000000E+00  0.0000000000000E+00
199  1.9800000000000E+00  0.0000000000000E+00  0.0000000000000E+00
200  1.9900000000000E+00  0.0000000000000E+00  0.0000000000000E+00
201  2.0000000000000E+00  0.0000000000000E+00  0.0000000000000E+00
202  2.0100000000000E+00  0.0000000000000E+00  0.0000000000000E+00
203  2.0200000000000E+00  0.0000000000000E+00  0.0000000000000E+00
204  2.0300000000000E+00  0.0000000000000E+00  0.0000000000000E+00
205  2.0400000000000E+00  0.0000000000000E+00  0.0000000000000E+00
206  2.0500000000000E+00  0.0000000000000E+00  0.0000000000000E+00
207  2.0600000000000E+00  0.0000000000000E+00  0.0000000000000E+00
208  2.0700000000000E+00  0.0000000000000E+00  0.0000000000000E+00
209  2.0800000000000E+00  0.0000000000000E+00  0.0000000000000E+00
210  2.0900000000000E+00  0.0000000000000E+00  0.0000000000000E+00
211  2.1000000000000E+00  0.0000000000000E+00  0.0000000000000E+00
212  2.1100000000000E+00  0.0000000000000E+00  0.0000000000000E+00
213  2.1200000000000E+00  0.0000000000000E+00  0.0000000000000E+00
214  2.1300000000000E+00  0.0000000000000E+00  0.0000000000000E+00
215  2.1400000000000E+00  0.0000000000000E+00  0.0000000000000E+00
216  2.1500000000000E+00  0.0000000000000E+00  0.0000000000000E+00
217  2.1600000000000E+00  0.0000000000000E+00  0.0000000000000E+00
218  2.1700000000000E+00  0.0000000000000E+00  0.0000000000000E+00
219  2.1800000000000E+00  0.0000000000000E+00  0.0000000000000E+00
220  2.1900000000000E+00  0.0000000000000E+00  0.0000000000000E+00
221  2.2000000000000E+00  0.0000000000000E+00  0.0000000000000E+00
222  2.2100000000000E+00  0.0000000000000E+00  0.0000000000000E+00
223  2.2200000000000E+00  0.0000000000000E+00  0.0000000000000E+00
224  2.2300000000000E+00  0.0000000000000E+00  0.0000000000000E+00
225  2.2400000000000E+00  0.0000000000000E+00  0.0000000000000E+00
226  2.2500000000000E+00  0.0000000000000E+00  0.0000000000000E+00
227  2.2600000000000E+00  0.0000000000000E+00  0.0000000000000E+00
228  2.2700000000000E+00  0.0000000000000E+00  0.0000000000000E+00
229  2.2800000000000E+00  0.0000000000000E+00  0.0000000000000E+00
230  2.2900000000000E+00  0.0000000000000E+00  0.0000000000000E+00
231  2.3000000000000E+00  0.0000000000000E+00  0.0000000000000E+00
232  2.3100000000000E+00  0.0000000000000E+00  0.0000000000000E+00
233  2.3200000000000E+00  0.0000000000000E+00  0.0000000000000E+00
234  2.3300000000000E+00  0.0000000000000E+00  0.0000000000000E+00
235  2.3400000000000E+00  0.0000000000000E+00  0.0000000000000E+00
236  2.3500000000000E+00  0.0000000000000E+00  0.0000000000000E+00
237  2.3600000000000E+00  0.0000000000000E+00  0.0000000000000E+00
238  2.3700000000000E+00  0.0000000000000E+00  0.0000000000000E+00
239  2.3800000000000E+00  0.0000000000000E+00  0.0000000000000E+00
240  2.3900000000000E+00  0.0000000000000E+00  0.0000000000000E+00
241  2.4000000000000E+00  0.0000000000000E+00  0.0000000000000E+00
242  2.4100000000000E+00  0.0000000000000E+00  0.0000000000000E+00
243  2.4200000000000E+00  0.0000000000000E+00  0.0000000000000E+00
244  2.4300000000000E+00  0.0000000000000E+00  0.0000000000000E+00
245  2.4400000000000E+00  0.0000000000000E+00  0.0000000000000E+00
246  2.4500000000000E+00  0.0000000000000E+00  0.0000000000000E+00
247  2.4600000000000E+00  0.0000000000000E+00  0.0000000000000E+00
248  2.4700000000000E+00  0.0000000000000E+00  0.0000000000000E+00
249  2.4800000000000E+00  0.0000000000000E+00  0.0000000000000E+00
250  2.4900000000000E+00  0.0000000000000E+00  0.0000000000000E+00
251  2.5000000000000E+00  0.0000000000000E+00  0.0000000000000E+00
252  2.5100000000000E+00  0.0000000000000E+00  0.0000000000000E+00
253  2.5200000000000E+00  0.0000000000000E+00  0.0000000000000E+00
254  2.5300000000000E+00  0.0000000000000E+00  0.0000000000000E+00
255  2.5400000000000E+00  0.0000000000000E+00  0.0000000000000E+00
256  2.5500000000000E+00  0.0000000000000E+00  0.0000000000000E+00
257  2.5600000000000E+00  0.0000000000000E+00  0.0000000000000E+00
258  2.5700000000000E+00  0.0000000000000E+00  0.0000000000000E+00
259  2.5800000000000E+00  0.0000000000000E+00  0.0000000000000E+00
260  2.5900000000000E+00  0.0000000000000E+00  0.0000000000000E+00
261  2.6000000000000E+00  0.0000000000000E+00  0.0000000000000E+00
262  2.6100000000000E+00  0.0000000000000E+00  0.0000000000000E+00
263  2.6200000000000E+00  0.0000000000000E+00  0.0000000000000E+00
264  2.6300000000000E+00  0.0000000000000E+00  0.0000000000000E+00
265  2.6400000000000E+00  0.0000000000000E+00  0.0000000000000E+00
266  2.6500000000000E+00  0.0000000000000E+00  0.0000000000000E+00
267  2.6600000000000E+00  0.0000000000000E+00  0.0000000000000E+00
268  2.6700000000000E+00  0.0000000000000E+00  0.0000000000000E+00
269  2.6800000000000E+00  0.0000000000000E+00  0.0000000000000E+00
270  2.6900000000000E+00  0.0000000000000E+00  0.0000000000000E+00
271  2.7000000000000E+00  0.0000000000000E+00  0.0000000000000E+00
272  2.7100000000000E+00  0.0000000000000E+00  0.0000000000000E+00
273  2.7200000000000E+00  0.0000000000000E+00  0.0000000000000E+00
274  2.7300000000000E+00  0.0000000000000E+00  0.0000000000000E+00
275  2.7400000000000E+00  0.0000000000000E+00  0.0000000000000E+00
276  2.7500000000000E+00  0.0000000000000E+00  0.0000000000000E+00
277  2.7600000000000E+00  0.0000000000000E+00  0.0000000000000E+00
278  2.7700000000000E+00  0.0000000000000E+00  0.0000000000000E+00
279  2.7800000000000E+00  0.0000000000000E+00  0.0000000000000E+00
280  2.7900000000000E+00  0.0000000000000E+00  0.0000000000000E+00
281  2.8000000000000E+00  0.0000000000000E+00  0.0000000000000E+00
282  2.8100000000000E+00  0.0000000000000E+00  0.0000000000000E+00
283  2.8200000000000E+00  0.0000000000000E+00  0.0000000000000E+00
284  2.8300000000000E+00  0.0000000000000E+00  0.0000000000000E+00
285  2.8400000000000E+00  0.0000000000000E+00  0.0000000000000E+00
286  2.8500000000000E+00  0.0000000000000E+00  0.0000000000000E+00
287  2.8600000000000E+00  0.0000000000000E+00  0.0000000000000E+00
288  2.8700000000000E+00  0.0000000000000E+00  0.0000000000000E+00
289  2.8800000000000E+00  0.0000000000000E+00  0.0000000000000E+00
290  2.8900000000000E+00  0.0000000000000E+00  0.0000000000000E+00
291  2.9000000000000E+00  0.0000000000000E+00  0.0000000000000E+00
292  2.9100000000000E+00  0.0000000000000E+00  0.0000000000000E+00
293  2.9200000000000E+00  0.0000000000000E+00  0.0000000000000E+00
294  2.9300000000000E+00  0.0000000000000E+00  0.0000000000000E+00
295  2.9400000000000E+00  0.0000000000000E+00  0.0000000000000E+00
296  2.9500000000000E+00  0.0000000000000E+00  0.0000000000000E+00
297  2.9600000000000E+00  0.0000000000000E+00  0.0000000000000E+00
298  2.9700000000000E+00  0.0000000000000E+00  0.0000000000000E+00
299  2.9800000000000E+00  0.0000000000000E+00  0.0000000000000E+00
300  2.9900000000000E+00  0.0000000000000E+00  0.0000000000000E+00
301  3.0000000000000E+00  0.0000000000000E+00  0.0000000000000E+00
302  3.0100000000000E+00  0.0000000000000E+00  0.0000000000000E+00
303  3.0200000000000E+00  0.0000000000000E+00  0.0000000000000E+00
304  3.0300000000000E+00  0.0000000000000E+00  0.0000000000000E+00
305  3.0400000000000E+00  0.0000000000000E+00  0.0000000000000E+00
306  3.0500000000000E+00  0.0000000000000E+00  0.0000000000000E+00
307  3.0600000000000E+00  0.0000000000000E+00  0.0000000000000E+00
308  3.0700000000000E+00  0.0000000000000E+00  0.0000000000000E+00
309  3.0800000000000E+00  0.0000000000000E+00  0.0000000000000E+00
310  3.0900000000000E+00  0.0000000000000E+00  0.0000000000000E+00
311  3.1000000000000E+00  0.0000000000000E+00  0.0000000000000E+00
312  3.1100000000000E+00  0.0000000000000E+00  0.0000000000000E+00
313  3.1200000000000E+00  0.0000000000000E+00  0.0000000000000E+00
314  3.1300000000000E+00  0.0000000000000E+00  0.0000000000000E+00
315  3.1400000000000E+00  0.0000000000000E+00  0.0000000000000E+00
316  3.1500000000000E+00  0.0000000000000E+00  0.0000000000000E+00
317  3.1600000000000E+00  0.0000000000000E+00  0.0000000000000E+00
318  3.1700000000000E+00  0.0000000000000E+00  0.0000000000000E+00
319  3.1800000000000E+00  0.0000000000000E+00  0.0000000000000E+00
320  3.1900000000000E+00  0.0000000000000E+00  0.0000000000000E+00
321  3.2000000000000E+00  0.0000000000000E+00  0.0000000000000E+00
322  3.2100000000000E+00  0.0000000000000E+00  0.0000000000000E+00
323  3.2200000000000E+00  0.0000000000000E+00  0.0000000000000E+00
324  3.2300000000000E+00  0.0000000000000E+00  0.0000000000000E+00
325  3.2400000000000E+00  0.0000000000000E+00  0.0000000000000E+00
326  3.2500000000000E+00  0.0000000000000E+00  0.0000000000000E+00
327  3.2600000000000E+00  0.0000000000000E+00  0.0000000000000E+00
328  3.2700000000000E+00  0.0000000000000E+00  0.0000000000000E+00
329  3.2800000000000E+00  0.0000000000000E+00  0.0000000000000E+00
330  3.2900000000000E+00  0.0000000000000E+00  0.0000000000000E+00
331  3.3000000000000E+00  0.0000000000000E+00  0.0000000000000E+00
332  3.3100000000000E+00  0.0000000000000E+00  0.0000000000000E+00
333  3.3200000000000E+00  0.0000000000000E+00  0.0000000000000E+00
334  3.3300000000000E+00  0.0000000000000E+00  0.0000000000000E+00
335  3.3400000000000E+00  0.0000000000000E+00  0.0000000000000E+00
336  3.3500000000000E+00  0.0000000000000E+00  0.0000000000000E+00
337  3.3600000000000E+00  0.0000000000000E+00  0.0000000000000E+00
338  3.3700000000000E+00  0.0000000000000E+00  0.0000000000000E+00
339  3.3800000000000E+00  0.0000000000000E+00  0.0000000000000E+00
340  3.3900000000000E+00  0.0000000000000E+00  0.0000000000000E+00
341  3.4000000000000E+00  0.0000000000000E+00  0.0000000000000E+00
342  3.4100000000000E+00  0.0000000000000E+00  0.0000000000000E+00
343  3.4200000000000E+00  0.0000000000000E+00  0.0000000000000E+00
344  3.4300000000000E+00  0.0000000000000E+00  0.0000000000000E+00
345  3.4400000000000E+00  0.0000000000000E+00  0.0000000000000E+00
346  3.4500000000000E+00  0.0000000000000E+00  0.0000000000000E+00
347  3.4600000000000E+00  0.0000000000000E+00  0.0000000000000E+00
348  3.4700000000000E+00  0.0000000000000E+00  0.0000000000000E+00
349  3.4800000000000E+00  0.0000000000000E+00  0.0000000000000E+00
350  3.4900000000000E+00  0.0000000000000E+00  0.0000000000000E+00
351  3.5000000000000E+00  0.0000000000000E+00  0.0000000000000E+00
352  3.5100000000000E+00  0.0000000000000E+00  0.0000000000000E+00
353  3.5200000000000E+00  0.0000000000000E+00  0.0000000000000E+00
354  3.5300000000000E+00  0.0000000000000E+00  0.0000000000000E+00
355  3.5400000000000E+00  0.0000000000000E+00  0.0000000000000E+00
356  3.5500000000000E+00  0.0000000000000E+00  0.0000000000000E+00
357  3.5600000000000E+00  0.0000000000000E+00  0.0000000000000E+00
358  3.5700000000000E+00  0.0000000000000E+00  0.0000000000000E+00
359  3.5800000000000E+00  0.0000000000000E+00  0.0000000000000E+00
360  3.5900000000000E+00  0.0000000000000E+00  0.0000000000000E+00
361  3.6000000000000E+00  0.0000000000000E+00  0.0000000000000E+00
362  3.6100000000000E+00  0.0000000000000E+00  0.0000000000000E+00
363  3.6200000000000E+00  0.0000000000000E+00  0.0000000000000E+00
364  3.6300000000000E+00  0.0000000000000E+00  0.0000000000000E+00
365  3.6400000000000E+00  0.0000000000000E+00  0.0000000000000E+00
366  3.6500000000000E+00  0.0000000000000E+00  0.0000000000000E+00
367  3.6600000000000E+00  0.0000000000000E+00  0.0000000000000E+00
368  3.6700000000000E+00  0.0000000000000E+00  0.0000000000000E+00
369  3.6800000000000E+00  0.0000000000000E+00  0.0000000000000E+00
370  3.6900000000000E+00  0.0000000000000E+00  0.0000000000000E+00
371  3.7000000000000E+00  0.0000000000000E+00  0.0000000000000E+00
372  3.7100000000000E+00  0.0000000000000E+00  0.0000000000000E+00
373  3.7200000000000E+00  0.0000000000000E+00  0.0000000000000E+00
374  3.7300000000000E+00  0.0000000000000E+00  0.0000000000000E+00
375  3.7400000000000E+00  0.0000000000000E+00  0.0000000000000E+00
376  3.7500000000000E+00  0.0000000000000E+00  0.0000000000000E+00
377  3.7600000000000E+00  0.0000000000000E+00  0.0000000000000E+00
378  3.7700000000000E+00  0.0000000000000E+00  0.0000000000000E+00
379  3.7800000000000E+00  0.0000000000000E+00  0.0000000000000E+00
380  3.7900000000000E+00  0.0000000000000E+00  0.0000000000000E+00
381  3.8000000000000E+00  0.0000000000000E+00  0.0000000000000E+00
382  3.8100000000000E+00  0.0000000000000E+00  0.0000000000000E+00
383  3.8200000000000E+00  0.0000000000000E+00  0.0000000000000E+00
384  3.8300000000000E+00  0.0000000000000E+00  0.0000000000000E+00
385  3.8400000000000E+00  0.0000000000000E+00  0.0000000000000E+00
386  3.8500000000000E+00  0.0000000000000E+00  0.0000000000000E+00
387  3.8600000000000E+00  0.0000000000000E+00  0.0000000000000E+00
388  3.8700000000000E+00  0.0000000000000E+00  0.0000000000000E+00
389  3.8800000000000E+00  0.0000000000000E+00  0.0000000000000E+00
390  3.8900000000000E+00  0.0000000000000E+00  0.0000000000000E+00
391  3.9000000000000E+00  0.0000000000000E+00  0.0000000000000E+00
392  3.9100000000000E+00  0.0000000000000E+00  0.0000000000000E+00
393  3.9200000000000E+00  0.0000000000000E+00  0.0000000000000E+00
394  3.9300000000000E+00  0.0000000000000E+00  0.0000000000000E+00
395  3.9400000000000E+00  0.0000000000000E+00  0.0000000000000E+00
396  3.9500000000000E+00  0.0000000000000E+00  0.0000000000000E+00
397  3.9600000000000E+00  0.0000000000000E+00  0.0000000000000E+00
398  3.9700000000000E+00  0.0000000000000E+00  0.0000000000000E+00
399  3.9800000000000E+00  0.0000000000000E+00  0.0000000000000E+00
400  3.9900000000000E+00  0.0000000000000E+00  0.0000000000000E+00
401  4.0000000000000E+00  0.0000000000000E+00  0.0000000000000E+00
402  4.0100000000000E+00  0.0000000000000E+00  0.0000000000000E+00
403  4.0200000000000E+00  0.0000000000000E+00  0.0000000000000E+00
404  4.0300000000000E+00  0.0000000000000E+00  0.0000000000000E+00
405  4.0400000000000E+00  0.0000000000000E+00  0.0000000000000E+00
406  4.0500000000000E+00  0.0000000000000E+00  0.0000000000000E+00
407  4.0600000000000E+00  0.0000000000000E+00  0.0000000000000E+00
408  4.0700000000000E+00  0.0000000000000E+00  0.0000000000000E+00
409  4.0800000000000E+00  0.0000000000000E+00  0.0000000000000E+00
410  4.0900000000000E+00  0.0000000000000E+00  0.0000000000000E+00
411  4.1000000000000E+00  0.0000000000000E+00  0.0000000000000E+00
412  4.1100000000000E+00  0.0000000000000E+00  0.0000000000000E+00
413  4.1200000000000E+00  0.0000000000000E+00  0.0000000000000E+00
414  4.1300000000000E+00  0.0000000000000E+00  0.0000000000000E+00
415  4.1400000000000E+00  0.0000000000000E+00  0.0000000000000E+00
416  4.1500000000000E+00  0.0000000000000E+00  0.0000000000000E+00
417  4.1600000000000E+00  0.0000000000000E+00  0.0000000000000E+00
418  4.1700000000000E+00  0.0000000000000E+00  0.0000000000000E+00
419  4.1800000000000E+00  0.0000000000000E+00  0.0000000000000E+00
420  4.1900000000000E+00  0.0000000000000E+00  0.0000000000000E+00
421  4.2000000000000E+00  0.0000000000000E+00  0.0000000000000E+00
422  4.2100000000000E+00  0.0000000000000E+00  0.0000000000000E+00
423  4.2200000000000E+00  0.0000000000000E+00  0.0000000000000E+00
424  4.2300000000000E+00  0.0000000000000E+00  0.0000000000000E+00
425  4.2400000000000E+00  0.0000000000000E+00  0.0000000000000E+00
426  4.2500000000000E+00  0.0000000000000E+00  0.0000000000000E+00
427  4.2600000000000E+00  0.0000000000000E+00  0.0000000000000E+00
428  4.2700000000000E+00  0.0000000000000E+00  0.0000000000000E+00
429  4.2800000000000E+00  0.0000000000000E+00  0.0000000000000E+00
430  4.2900000000000E+00  0.0000000000000E+00  0.0000000000000E+00
431  4.3000000000000E+00  0.0000000000000E+00  0.0000000000000E+00
432  4.3100000000000E+00  0.0000000000000E+00  0.0000000000000E+00
433  4.3200000000000E+00  0.0000000000000E+00  0.0000000000000E+00
434  4.3300000000000E+00  0.0000000000000E+00  0.0000000000000E+00
435  4.3400000000000E+00  0.0000000000000E+00  0.0000000000000E+00
436  4.3500000000000E+00  0.0000000000000E+00  0.0000000000000E+00
437  4.3600000000000E+00  0.0000000000000E+00  0.0000000000000E+00
438  4.3700000000000E+00  0.0000000000000E+00  0.0000000000000E+00
439  4.3800000000000E+00  0.0000000000000E+00  0.0000000000000E+00
440  4.3900000000000E+00  0.0000000000000E+00  0.0000000000000E+00
441  4.4000000000000E+00  0.0000000000000E+00  0.0000000000000E+00
442  4.4100000000000E+00  0.0000000000000E+00  0.0000000000000E+00
443  4.4200000000000E+00  0.0000000000000E+00  0.0000000000000E+00