Cl    ONCVPSP-3.2.3.1  r_core=   1.56009   1.35202   1.75774
17.0000      7.0000      170504    zatom,zion,pspd
8      11   2     4   600     0    pspcod,pspxc,lmax,lloc,mmax,r2well
5.99000000  8.00000000  0.00000000    rchrg fchrg qchrg
2     2     2     0     0    nproj
1     1           extension_switch
0                         8.1392959083015E+00  6.9871994866182E-01
1  0.0000000000000E+00  4.9375858957035E-10 -2.8720283928863E-09
2  1.0000000000000E-02  4.6684783492544E-02 -1.7895377612905E-02
3  2.0000000000000E-02  9.3344224000681E-02 -3.5863104770239E-02
4  3.0000000000000E-02  1.3995256328114E-01 -5.3973166179272E-02
5  4.0000000000000E-02  1.8648322030285E-01 -7.2290860066200E-02
6  5.0000000000000E-02  2.3290839904897E-01 -9.0874562168989E-02
7  6.0000000000000E-02  2.7919871899591E-01 -1.0977361632376E-01
8  7.0000000000000E-02  3.2532287523706E-01 -1.2902639040335E-01
9  8.0000000000000E-02  3.7124733472593E-01 -1.4865853349477E-01
10  9.0000000000000E-02  4.1693607451113E-01 -1.6868146670539E-01
11  1.0000000000000E-01  4.6235036713689E-01 -1.8909113592672E-01
12  1.1000000000000E-01  5.0744861759698E-01 -2.0986705032768E-01
13  1.2000000000000E-01  5.5218625537186E-01 -2.3097162537629E-01
14  1.3000000000000E-01  5.9651568416158E-01 -2.5234984388335E-01
15  1.4000000000000E-01  6.4038629096685E-01 -2.7392924301644E-01
16  1.5000000000000E-01  6.8374451518297E-01 -2.9562022954177E-01
17  1.6000000000000E-01  7.2653397737290E-01 -3.1731671981409E-01
18  1.7000000000000E-01  7.6869566639339E-01 -3.3889709534842E-01
19  1.8000000000000E-01  8.1016818257785E-01 -3.6022545927169E-01
20  1.9000000000000E-01  8.5088803374879E-01 -3.8115317366184E-01
21  2.0000000000000E-01  8.9078997995515E-01 -4.0152065282871E-01
22  2.1000000000000E-01  9.2980742202225E-01 -4.2115938306145E-01
23  2.2000000000000E-01  9.6787282827622E-01 -4.3989413533963E-01
24  2.3000000000000E-01  1.0049181931740E+00 -4.5754533405076E-01
25  2.4000000000000E-01  1.0408755210439E+00 -4.7393154193575E-01
26  2.5000000000000E-01  1.0756773277302E+00 -4.8887201934634E-01
27  2.6000000000000E-01  1.1092571526437E+00 -5.0218931448379E-01
28  2.7000000000000E-01  1.1415500735552E+00 -5.1371184062036E-01
29  2.8000000000000E-01  1.1724932164303E+00 -5.2327639639975E-01
30  2.9000000000000E-01  1.2020262526989E+00 -5.3073058616922E-01
31  3.0000000000000E-01  1.2300918765671E+00 -5.3593509890032E-01
32  3.1000000000000E-01  1.2566362553264E+00 -5.3876580658405E-01
33  3.2000000000000E-01  1.2816094460722E+00 -5.3911564599896E-01
34  3.3000000000000E-01  1.3049657728140E+00 -5.3689625139814E-01
35  3.4000000000000E-01  1.3266641586319E+00 -5.3203930988186E-01
36  3.5000000000000E-01  1.3466684082885E+00 -5.2449761594569E-01
37  3.6000000000000E-01  1.3649474375434E+00 -5.1424580683770E-01
38  3.7000000000000E-01  1.3814754463104E+00 -5.0128076583634E-01
39  3.8000000000000E-01  1.3962320337398E+00 -4.8562168627891E-01
40  3.9000000000000E-01  1.4092022542796E+00 -4.6730979502866E-01
41  4.0000000000000E-01  1.4203766147539E+00 -4.4640773996885E-01
42  4.1000000000000E-01  1.4297510134777E+00 -4.2299865194793E-01
43  4.2000000000000E-01  1.4373266233869E+00 -3.9718489727384E-01
44  4.3000000000000E-01  1.4431097220862E+00 -3.6908654226480E-01
45  4.4000000000000E-01  1.4471114725878E+00 -3.3883955641528E-01
46  4.5000000000000E-01  1.4493476593148E+00 -3.0659378533976E-01
47  4.6000000000000E-01  1.4498383846625E+00 -2.7251072873050E-01
48  4.7000000000000E-01  1.4486077320387E+00 -2.3676116203624E-01
49  4.8000000000000E-01  1.4456834018204E+00 -1.9952264337380E-01
50  4.9000000000000E-01  1.4410963270704E+00 -1.6097694927084E-01
51  5.0000000000000E-01  1.4348802761413E+00 -1.2130748416657E-01
52  5.1000000000000E-01  1.4270714494494E+00 -8.0696709142313E-02
53  5.2000000000000E-01  1.4177080777257E+00 -3.9323635099296E-02
54  5.3000000000000E-01  1.4068300289502E+00  2.6385754490914E-03
55  5.4000000000000E-01  1.3944784309379E+00  4.5024855638710E-02
56  5.5000000000000E-01  1.3806953161898E+00  8.7680290823585E-02
57  5.6000000000000E-01  1.3655232951418E+00  1.3046194801563E-01
58  5.7000000000000E-01  1.3490052633560E+00  1.7324044571119E-01
59  5.8000000000000E-01  1.3311841475108E+00  2.1590123619096E-01
60  5.9000000000000E-01  1.3121026942638E+00  2.5834557743774E-01
61  6.0000000000000E-01  1.2918033052083E+00  3.0049117734534E-01
62  6.1000000000000E-01  1.2703279202319E+00  3.4227249870975E-01
63  6.2000000000000E-01  1.2477179506175E+00  3.8364071960850E-01
64  6.3000000000000E-01  1.2240142622474E+00  4.2456334995960E-01
65  6.4000000000000E-01  1.1992572082666E+00  4.6502351131190E-01
66  6.5000000000000E-01  1.1734867095695E+00  5.0501889307618E-01
67  6.6000000000000E-01  1.1467423805118E+00  5.4456040434684E-01
68  6.7000000000000E-01  1.1190636963188E+00  5.8367054615883E-01
69  6.8000000000000E-01  1.0904901977962E+00  6.2238153427281E-01
70  6.9000000000000E-01  1.0610617281598E+00  6.6073320735025E-01
71  7.0000000000000E-01  1.0308186960959E+00  6.9877075957496E-01
72  7.1000000000000E-01  9.9980235856055E-01  7.3654234030604E-01
73  7.2000000000000E-01  9.6805511634279E-01  7.7409656614590E-01
74  7.3000000000000E-01  9.3562081504881E-01  8.1147999283083E-01
75  7.4000000000000E-01  9.0254504393079E-01  8.4873459555160E-01
76  7.5000000000000E-01  8.6887542488464E-01  8.8589530666441E-01
77  7.6000000000000E-01  8.3466188398031E-01  9.2298765923889E-01
78  7.7000000000000E-01  7.9995689806632E-01  9.6002558352020E-01
79  7.8000000000000E-01  7.6481570930510E-01  9.9700940116885E-01
80  7.9000000000000E-01  7.2929650094282E-01  1.0339240591172E+00
81  8.0000000000000E-01  6.9346052819119E-01  1.0707376410914E+00
82  8.1000000000000E-01  6.5737219878856E-01  1.1074001903541E+00
83  8.2000000000000E-01  6.2109909860515E-01  1.1438428720882E+00
84  8.3000000000000E-01  5.8471195854455E-01  1.1799774981825E+00
85  8.4000000000000E-01  5.4828455996555E-01  1.2156964310217E+00
86  8.5000000000000E-01  5.1189357687676E-01  1.2508728764162E+00
87  8.6000000000000E-01  4.7561835423438E-01  1.2853615690714E+00
88  8.7000000000000E-01  4.3954062277751E-01  1.3189998471341E+00
89  8.8000000000000E-01  4.0374415194832E-01  1.3516091054847E+00
90  8.9000000000000E-01  3.6831434354678E-01  1.3829966106797E+00
91  9.0000000000000E-01  3.3333776984674E-01  1.4129576538874E+00
92  9.1000000000000E-01  2.9890166091882E-01  1.4412780119978E+00
93  9.2000000000000E-01  2.6509334687647E-01  1.4677366812729E+00
94  9.3000000000000E-01  2.3199966163348E-01  1.4921088427334E+00
95  9.4000000000000E-01  1.9970631554549E-01  1.5141690138919E+00
96  9.5000000000000E-01  1.6829724497736E-01  1.5336943376052E+00
97  9.6000000000000E-01  1.3785394738480E-01  1.5504679557686E+00
98  9.7000000000000E-01  1.0845481091152E-01  1.5642824133843E+00
99  9.8000000000000E-01  8.0174447774457E-02  1.5749430372370E+00
100  9.9000000000000E-01  5.3083040835823E-02  1.5822712330333E+00
101  1.0000000000000E+00  2.7245712727241E-02  1.5861076454861E+00
102  1.0100000000000E+00  2.7219267311080E-03  1.5863151272157E+00
103  1.0200000000000E+00 -2.0435071712772E-02  1.5827814648618E+00
104  1.0300000000000E+00 -4.2178764469924E-02  1.5754218140615E+00
105  1.0400000000000E+00 -6.2469813341049E-02  1.5641807990722E+00
106  1.0500000000000E+00 -8.1276448779580E-02  1.5490342376642E+00
107  1.0600000000000E+00 -9.8574788517875E-02  1.5299904578313E+00
108  1.0700000000000E+00 -1.1434908074062E-01  1.5070911782033E+00
109  1.0800000000000E+00 -1.2859186763837E-01  1.4804119317442E+00
110  1.0900000000000E+00 -1.4130406616752E-01  1.4500620186556E+00
111  1.1000000000000E+00 -1.5249496405005E-01  1.4161839820471E+00
112  1.1100000000000E+00 -1.6218213024100E-01  1.3789526074335E+00
113  1.1200000000000E+00 -1.7039124017670E-01  1.3385734538867E+00
114  1.1300000000000E+00 -1.7715581751198E-01  1.2952809332769E+00
115  1.1400000000000E+00 -1.8251689506254E-01  1.2493359601930E+00
116  1.1500000000000E+00 -1.8652259890240E-01  1.2010232025680E+00
117  1.1600000000000E+00 -1.8922766041035E-01  1.1506479681229E+00
118  1.1700000000000E+00 -1.9069286235435E-01  1.0985327693486E+00
119  1.1800000000000E+00 -1.9098442576105E-01  1.0450136134809E+00
120  1.1900000000000E+00 -1.9017334509045E-01  9.9043606827084E-01
121  1.2000000000000E+00 -1.8833467992683E-01  9.3515115818119E-01
122  1.2100000000000E+00 -1.8554681195974E-01  8.7951114842875E-01
123  1.2200000000000E+00 -1.8189067625187E-01  8.2386527497130E-01
124  1.2300000000000E+00 -1.7744897607786E-01  7.6855548006938E-01
125  1.2400000000000E+00 -1.7230539075987E-01  7.1391221262407E-01
126  1.2500000000000E+00 -1.6654378559300E-01  6.6025034985372E-01
127  1.2600000000000E+00 -1.6024743287663E-01  6.0786529560960E-01
128  1.2700000000000E+00 -1.5349825325185E-01  5.5702931218392E-01
129  1.2800000000000E+00 -1.4637608132380E-01  5.0798810123619E-01
130  1.2900000000000E+00 -1.3895798920978E-01  4.6095788374890E-01
131  1.3000000000000E+00 -1.3131759744393E-01  4.1612240467568E-01
132  1.3100000000000E+00 -1.2352445480694E-01  3.7363044998330E-01
133  1.3200000000000E+00 -1.1564387664635E-01  3.3359737751032E-01
134  1.3300000000000E+00 -1.0773689758338E-01  2.9610705321543E-01
135  1.3400000000000E+00 -9.9860407021537E-02  2.6121483951389E-01
136  1.3500000000000E+00 -9.2066957165500E-02  2.2894746050465E-01
137  1.3600000000000E+00 -8.4404674021288E-02  1.9930358402278E-01
138  1.3700000000000E+00 -7.6917257869792E-02  1.7225512327168E-01
139  1.3800000000000E+00 -6.9644032225757E-02  1.4774879712230E-01
140  1.3900000000000E+00 -6.2620054736916E-02  1.2570810588491E-01
141  1.4000000000000E+00 -5.5876283196104E-02  1.0603565558635E-01
142  1.4100000000000E+00 -4.9439791650044E-02  8.8615793740264E-02
143  1.4200000000000E+00 -4.3334030552764E-02  7.3317509697372E-02
144  1.4300000000000E+00 -3.7579125093006E-02  5.9997553808166E-02
145  1.4400000000000E+00 -3.2192203301101E-02  4.8503714370111E-02
146  1.4500000000000E+00 -2.7187747404438E-02  3.8678202634981E-02
147  1.4600000000000E+00 -2.2577959531662E-02  3.0361081776271E-02
148  1.4700000000000E+00 -1.8373134356232E-02  2.3393685721216E-02
149  1.4800000000000E+00 -1.4582029647235E-02  1.7621962468044E-02
150  1.4900000000000E+00 -1.1212227937332E-02  1.2899693896325E-02
151  1.5000000000000E+00 -8.2704798128584E-03  9.0915233771455E-03
152  1.5100000000000E+00 -5.7641806212505E-03  6.0767525108244E-03
153  1.5200000000000E+00 -3.6969027382048E-03  3.7477424451706E-03
154  1.5300000000000E+00 -2.0665680861233E-03  2.0112024451093E-03
155  1.5400000000000E+00 -9.0335849683181E-04  8.1838021222972E-04
156  1.5500000000000E+00 -2.2857378903280E-04  1.3178860895884E-04
157  1.5600000000000E+00  4.3618194549905E-05 -1.3261528105933E-04
158  1.5700000000000E+00  5.8482842290739E-05 -9.9988243161317E-05
159  1.5800000000000E+00 -4.5880049205687E-06  7.2658046542091E-06
160  1.5900000000000E+00 -1.5758027712429E-05  2.3882782405103E-05
161  1.6000000000000E+00  1.4101113374332E-06 -2.3363540598786E-06
162  1.6100000000000E+00  2.9210887292537E-06 -4.7471805483892E-06
163  1.6200000000000E+00 -6.7942838324284E-08  2.0316893831775E-07
164  1.6300000000000E+00 -1.0381152197647E-07  3.1042678264988E-07
165  1.6400000000000E+00  0.0000000000000E+00  0.0000000000000E+00
166  1.6500000000000E+00  0.0000000000000E+00  0.0000000000000E+00
167  1.6600000000000E+00  0.0000000000000E+00  0.0000000000000E+00
168  1.6700000000000E+00  0.0000000000000E+00  0.0000000000000E+00
169  1.6800000000000E+00  0.0000000000000E+00  0.0000000000000E+00
170  1.6900000000000E+00  0.0000000000000E+00  0.0000000000000E+00
171  1.7000000000000E+00  0.0000000000000E+00  0.0000000000000E+00
172  1.7100000000000E+00  0.0000000000000E+00  0.0000000000000E+00
173  1.7200000000000E+00  0.0000000000000E+00  0.0000000000000E+00
174  1.7300000000000E+00  0.0000000000000E+00  0.0000000000000E+00
175  1.7400000000000E+00  0.0000000000000E+00  0.0000000000000E+00
176  1.7500000000000E+00  0.0000000000000E+00  0.0000000000000E+00
177  1.7600000000000E+00  0.0000000000000E+00  0.0000000000000E+00
178  1.7700000000000E+00  0.0000000000000E+00  0.0000000000000E+00
179  1.7800000000000E+00  0.0000000000000E+00  0.0000000000000E+00
180  1.7900000000000E+00  0.0000000000000E+00  0.0000000000000E+00
181  1.8000000000000E+00  0.0000000000000E+00  0.0000000000000E+00
182  1.8100000000000E+00  0.0000000000000E+00  0.0000000000000E+00
183  1.8200000000000E+00  0.0000000000000E+00  0.0000000000000E+00
184  1.8300000000000E+00  0.0000000000000E+00  0.0000000000000E+00
185  1.8400000000000E+00  0.0000000000000E+00  0.0000000000000E+00
186  1.8500000000000E+00  0.0000000000000E+00  0.0000000000000E+00
187  1.8600000000000E+00  0.0000000000000E+00  0.0000000000000E+00
188  1.8700000000000E+00  0.0000000000000E+00  0.0000000000000E+00
189  1.8800000000000E+00  0.0000000000000E+00  0.0000000000000E+00
190  1.8900000000000E+00  0.0000000000000E+00  0.0000000000000E+00
191  1.9000000000000E+00  0.0000000000000E+00  0.0000000000000E+00
192  1.9100000000000E+00  0.0000000000000E+00  0.0000000000000E+00
193  1.9200000000000E+00  0.0000000000000E+00  0.0000000000000E+00
194  1.9300000000000E+00  0.0000000000000E+00  0.0000000000000E+00
195  1.9400000000000E+00  0.0000000000000E+00  0.0000000000000E+00
196  1.9500000000000E+00  0.0000000000000E+00  0.0000000000000E+00
197  1.9600000000000E+00  0.0000000000000E+00  0.0000000000000E+00
198  1.9700000000000E+00  0.0000000000000E+00  0.0000000000000E+00
199  1.9800000000000E+00  0.0000000000000E+00  0.0000000000000E+00
200  1.9900000000000E+00  0.0000000000000E+00  0.0000000000000E+00
201  2.0000000000000E+00  0.0000000000000E+00  0.0000000000000E+00
202  2.0100000000000E+00  0.0000000000000E+00  0.0000000000000E+00
203  2.0200000000000E+00  0.0000000000000E+00  0.0000000000000E+00
204  2.0300000000000E+00  0.0000000000000E+00  0.0000000000000E+00
205  2.0400000000000E+00  0.0000000000000E+00  0.0000000000000E+00
206  2.0500000000000E+00  0.0000000000000E+00  0.0000000000000E+00
207  2.0600000000000E+00  0.0000000000000E+00  0.0000000000000E+00
208  2.0700000000000E+00  0.0000000000000E+00  0.0000000000000E+00
209  2.0800000000000E+00  0.0000000000000E+00  0.0000000000000E+00
210  2.0900000000000E+00  0.0000000000000E+00  0.0000000000000E+00
211  2.1000000000000E+00  0.0000000000000E+00  0.0000000000000E+00
212  2.1100000000000E+00  0.0000000000000E+00  0.0000000000000E+00
213  2.1200000000000E+00  0.0000000000000E+00  0.0000000000000E+00
214  2.1300000000000E+00  0.0000000000000E+00  0.0000000000000E+00
215  2.1400000000000E+00  0.0000000000000E+00  0.0000000000000E+00
216  2.1500000000000E+00  0.0000000000000E+00  0.0000000000000E+00
217  2.1600000000000E+00  0.0000000000000E+00  0.0000000000000E+00
218  2.1700000000000E+00  0.0000000000000E+00  0.0000000000000E+00
219  2.1800000000000E+00  0.0000000000000E+00  0.0000000000000E+00
220  2.1900000000000E+00  0.0000000000000E+00  0.0000000000000E+00
221  2.2000000000000E+00  0.0000000000000E+00  0.0000000000000E+00
222  2.2100000000000E+00  0.0000000000000E+00  0.0000000000000E+00
223  2.2200000000000E+00  0.0000000000000E+00  0.0000000000000E+00
224  2.2300000000000E+00  0.0000000000000E+00  0.0000000000000E+00
225  2.2400000000000E+00  0.0000000000000E+00  0.0000000000000E+00
226  2.2500000000000E+00  0.0000000000000E+00  0.0000000000000E+00
227  2.2600000000000E+00  0.0000000000000E+00  0.0000000000000E+00
228  2.2700000000000E+00  0.0000000000000E+00  0.0000000000000E+00
229  2.2800000000000E+00  0.0000000000000E+00  0.0000000000000E+00
230  2.2900000000000E+00  0.0000000000000E+00  0.0000000000000E+00
231  2.3000000000000E+00  0.0000000000000E+00  0.0000000000000E+00
232  2.3100000000000E+00  0.0000000000000E+00  0.0000000000000E+00
233  2.3200000000000E+00  0.0000000000000E+00  0.0000000000000E+00
234  2.3300000000000E+00  0.0000000000000E+00  0.0000000000000E+00
235  2.3400000000000E+00  0.0000000000000E+00  0.0000000000000E+00
236  2.3500000000000E+00  0.0000000000000E+00  0.0000000000000E+00
237  2.3600000000000E+00  0.0000000000000E+00  0.0000000000000E+00
238  2.3700000000000E+00  0.0000000000000E+00  0.0000000000000E+00
239  2.3800000000000E+00  0.0000000000000E+00  0.0000000000000E+00
240  2.3900000000000E+00  0.0000000000000E+00  0.0000000000000E+00
241  2.4000000000000E+00  0.0000000000000E+00  0.0000000000000E+00
242  2.4100000000000E+00  0.0000000000000E+00  0.0000000000000E+00
243  2.4200000000000E+00  0.0000000000000E+00  0.0000000000000E+00
244  2.4300000000000E+00  0.0000000000000E+00  0.0000000000000E+00
245  2.4400000000000E+00  0.0000000000000E+00  0.0000000000000E+00
246  2.4500000000000E+00  0.0000000000000E+00  0.0000000000000E+00
247  2.4600000000000E+00  0.0000000000000E+00  0.0000000000000E+00
248  2.4700000000000E+00  0.0000000000000E+00  0.0000000000000E+00
249  2.4800000000000E+00  0.0000000000000E+00  0.0000000000000E+00
250  2.4900000000000E+00  0.0000000000000E+00  0.0000000000000E+00
251  2.5000000000000E+00  0.0000000000000E+00  0.0000000000000E+00
252  2.5100000000000E+00  0.0000000000000E+00  0.0000000000000E+00
253  2.5200000000000E+00  0.0000000000000E+00  0.0000000000000E+00
254  2.5300000000000E+00  0.0000000000000E+00  0.0000000000000E+00
255  2.5400000000000E+00  0.0000000000000E+00  0.0000000000000E+00
256  2.5500000000000E+00  0.0000000000000E+00  0.0000000000000E+00
257  2.5600000000000E+00  0.0000000000000E+00  0.0000000000000E+00
258  2.5700000000000E+00  0.0000000000000E+00  0.0000000000000E+00
259  2.5800000000000E+00  0.0000000000000E+00  0.0000000000000E+00
260  2.5900000000000E+00  0.0000000000000E+00  0.0000000000000E+00
261  2.6000000000000E+00  0.0000000000000E+00  0.0000000000000E+00
262  2.6100000000000E+00  0.0000000000000E+00  0.0000000000000E+00
263  2.6200000000000E+00  0.0000000000000E+00  0.0000000000000E+00
264  2.6300000000000E+00  0.0000000000000E+00  0.0000000000000E+00
265  2.6400000000000E+00  0.0000000000000E+00  0.0000000000000E+00
266  2.6500000000000E+00  0.0000000000000E+00  0.0000000000000E+00
267  2.6600000000000E+00  0.0000000000000E+00  0.0000000000000E+00
268  2.6700000000000E+00  0.0000000000000E+00  0.0000000000000E+00
269  2.6800000000000E+00  0.0000000000000E+00  0.0000000000000E+00
270  2.6900000000000E+00  0.0000000000000E+00  0.0000000000000E+00
271  2.7000000000000E+00  0.0000000000000E+00  0.0000000000000E+00
272  2.7100000000000E+00  0.0000000000000E+00  0.0000000000000E+00
273  2.7200000000000E+00  0.0000000000000E+00  0.0000000000000E+00
274  2.7300000000000E+00  0.0000000000000E+00  0.0000000000000E+00
275  2.7400000000000E+00  0.0000000000000E+00  0.0000000000000E+00
276  2.7500000000000E+00  0.0000000000000E+00  0.0000000000000E+00
277  2.7600000000000E+00  0.0000000000000E+00  0.0000000000000E+00
278  2.7700000000000E+00  0.0000000000000E+00  0.0000000000000E+00
279  2.7800000000000E+00  0.0000000000000E+00  0.0000000000000E+00
280  2.7900000000000E+00  0.0000000000000E+00  0.0000000000000E+00
281  2.8000000000000E+00  0.0000000000000E+00  0.0000000000000E+00
282  2.8100000000000E+00  0.0000000000000E+00  0.0000000000000E+00
283  2.8200000000000E+00  0.0000000000000E+00  0.0000000000000E+00
284  2.8300000000000E+00  0.0000000000000E+00  0.0000000000000E+00
285  2.8400000000000E+00  0.0000000000000E+00  0.0000000000000E+00
286  2.8500000000000E+00  0.0000000000000E+00  0.0000000000000E+00
287  2.8600000000000E+00  0.0000000000000E+00  0.0000000000000E+00
288  2.8700000000000E+00  0.0000000000000E+00  0.0000000000000E+00
289  2.8800000000000E+00  0.0000000000000E+00  0.0000000000000E+00
290  2.8900000000000E+00  0.0000000000000E+00  0.0000000000000E+00
291  2.9000000000000E+00  0.0000000000000E+00  0.0000000000000E+00
292  2.9100000000000E+00  0.0000000000000E+00  0.0000000000000E+00
293  2.9200000000000E+00  0.0000000000000E+00  0.0000000000000E+00
294  2.9300000000000E+00  0.0000000000000E+00  0.0000000000000E+00
295  2.9400000000000E+00  0.0000000000000E+00  0.0000000000000E+00
296  2.9500000000000E+00  0.0000000000000E+00  0.0000000000000E+00
297  2.9600000000000E+00  0.0000000000000E+00  0.0000000000000E+00
298  2.9700000000000E+00  0.0000000000000E+00  0.0000000000000E+00
299  2.9800000000000E+00  0.0000000000000E+00  0.0000000000000E+00
300  2.9900000000000E+00  0.0000000000000E+00  0.0000000000000E+00
301  3.0000000000000E+00  0.0000000000000E+00  0.0000000000000E+00
302  3.0100000000000E+00  0.0000000000000E+00  0.0000000000000E+00
303  3.0200000000000E+00  0.0000000000000E+00  0.0000000000000E+00
304  3.0300000000000E+00  0.0000000000000E+00  0.0000000000000E+00
305  3.0400000000000E+00  0.0000000000000E+00  0.0000000000000E+00
306  3.0500000000000E+00  0.0000000000000E+00  0.0000000000000E+00
307  3.0600000000000E+00  0.0000000000000E+00  0.0000000000000E+00
308  3.0700000000000E+00  0.0000000000000E+00  0.0000000000000E+00
309  3.0800000000000E+00  0.0000000000000E+00  0.0000000000000E+00
310  3.0900000000000E+00  0.0000000000000E+00  0.0000000000000E+00
311  3.1000000000000E+00  0.0000000000000E+00  0.0000000000000E+00
312  3.1100000000000E+00  0.0000000000000E+00  0.0000000000000E+00
313  3.1200000000000E+00  0.0000000000000E+00  0.0000000000000E+00
314  3.1300000000000E+00  0.0000000000000E+00  0.0000000000000E+00
315  3.1400000000000E+00  0.0000000000000E+00  0.0000000000000E+00
316  3.1500000000000E+00  0.0000000000000E+00  0.0000000000000E+00
317  3.1600000000000E+00  0.0000000000000E+00  0.0000000000000E+00
318  3.1700000000000E+00  0.0000000000000E+00  0.0000000000000E+00
319  3.1800000000000E+00  0.0000000000000E+00  0.0000000000000E+00
320  3.1900000000000E+00  0.0000000000000E+00  0.0000000000000E+00
321  3.2000000000000E+00  0.0000000000000E+00  0.0000000000000E+00
322  3.2100000000000E+00  0.0000000000000E+00  0.0000000000000E+00
323  3.2200000000000E+00  0.0000000000000E+00  0.0000000000000E+00
324  3.2300000000000E+00  0.0000000000000E+00  0.0000000000000E+00
325  3.2400000000000E+00  0.0000000000000E+00  0.0000000000000E+00
326  3.2500000000000E+00  0.0000000000000E+00  0.0000000000000E+00
327  3.2600000000000E+00  0.0000000000000E+00  0.0000000000000E+00
328  3.2700000000000E+00  0.0000000000000E+00  0.0000000000000E+00
329  3.2800000000000E+00  0.0000000000000E+00  0.0000000000000E+00
330  3.2900000000000E+00  0.0000000000000E+00  0.0000000000000E+00
331  3.3000000000000E+00  0.0000000000000E+00  0.0000000000000E+00
332  3.3100000000000E+00  0.0000000000000E+00  0.0000000000000E+00
333  3.3200000000000E+00  0.0000000000000E+00  0.0000000000000E+00
334  3.3300000000000E+00  0.0000000000000E+00  0.0000000000000E+00
335  3.3400000000000E+00  0.0000000000000E+00  0.0000000000000E+00
336  3.3500000000000E+00  0.0000000000000E+00  0.0000000000000E+00
337  3.3600000000000E+00  0.0000000000000E+00  0.0000000000000E+00
338  3.3700000000000E+00  0.0000000000000E+00  0.0000000000000E+00
339  3.3800000000000E+00  0.0000000000000E+00  0.0000000000000E+00
340  3.3900000000000E+00  0.0000000000000E+00  0.0000000000000E+00
341  3.4000000000000E+00  0.0000000000000E+00  0.0000000000000E+00
342  3.4100000000000E+00  0.0000000000000E+00  0.0000000000000E+00
343  3.4200000000000E+00  0.0000000000000E+00  0.0000000000000E+00
344  3.4300000000000E+00  0.0000000000000E+00  0.0000000000000E+00
345  3.4400000000000E+00  0.0000000000000E+00  0.0000000000000E+00
346  3.4500000000000E+00  0.0000000000000E+00  0.0000000000000E+00
347  3.4600000000000E+00  0.0000000000000E+00  0.0000000000000E+00
348  3.4700000000000E+00  0.0000000000000E+00  0.0000000000000E+00
349  3.4800000000000E+00  0.0000000000000E+00  0.0000000000000E+00
350  3.4900000000000E+00  0.0000000000000E+00  0.0000000000000E+00
351  3.5000000000000E+00  0.0000000000000E+00  0.0000000000000E+00
352  3.5100000000000E+00  0.0000000000000E+00  0.0000000000000E+00
353  3.5200000000000E+00  0.0000000000000E+00  0.0000000000000E+00
354  3.5300000000000E+00  0.0000000000000E+00  0.0000000000000E+00
355  3.5400000000000E+00  0.0000000000000E+00  0.0000000000000E+00
356  3.5500000000000E+00  0.0000000000000E+00  0.0000000000000E+00
357  3.5600000000000E+00  0.0000000000000E+00  0.0000000000000E+00
358  3.5700000000000E+00  0.0000000000000E+00  0.0000000000000E+00
359  3.5800000000000E+00  0.0000000000000E+00  0.0000000000000E+00
360  3.5900000000000E+00  0.0000000000000E+00  0.0000000000000E+00
361  3.6000000000000E+00  0.0000000000000E+00  0.0000000000000E+00
362  3.6100000000000E+00  0.0000000000000E+00  0.0000000000000E+00
363  3.6200000000000E+00  0.0000000000000E+00  0.0000000000000E+00
364  3.6300000000000E+00  0.0000000000000E+00  0.0000000000000E+00
365  3.6400000000000E+00  0.0000000000000E+00  0.0000000000000E+00
366  3.6500000000000E+00  0.0000000000000E+00  0.0000000000000E+00
367  3.6600000000000E+00  0.0000000000000E+00  0.0000000000000E+00
368  3.6700000000000E+00  0.0000000000000E+00  0.0000000000000E+00
369  3.6800000000000E+00  0.0000000000000E+00  0.0000000000000E+00
370  3.6900000000000E+00  0.0000000000000E+00  0.0000000000000E+00
371  3.7000000000000E+00  0.0000000000000E+00  0.0000000000000E+00
372  3.7100000000000E+00  0.0000000000000E+00  0.0000000000000E+00
373  3.7200000000000E+00  0.0000000000000E+00  0.0000000000000E+00
374  3.7300000000000E+00  0.0000000000000E+00  0.0000000000000E+00
375  3.7400000000000E+00  0.0000000000000E+00  0.0000000000000E+00
376  3.7500000000000E+00  0.0000000000000E+00  0.0000000000000E+00
377  3.7600000000000E+00  0.0000000000000E+00  0.0000000000000E+00
378  3.7700000000000E+00  0.0000000000000E+00  0.0000000000000E+00
379  3.7800000000000E+00  0.0000000000000E+00  0.0000000000000E+00
380  3.7900000000000E+00  0.0000000000000E+00  0.0000000000000E+00
381  3.8000000000000E+00  0.0000000000000E+00  0.0000000000000E+00
382  3.8100000000000E+00  0.0000000000000E+00  0.0000000000000E+00
383  3.8200000000000E+00  0.0000000000000E+00  0.0000000000000E+00
384  3.8300000000000E+00  0.0000000000000E+00  0.0000000000000E+00
385  3.8400000000000E+00  0.0000000000000E+00  0.0000000000000E+00
386  3.8500000000000E+00  0.0000000000000E+00  0.0000000000000E+00
387  3.8600000000000E+00  0.0000000000000E+00  0.0000000000000E+00
388  3.8700000000000E+00  0.0000000000000E+00  0.0000000000000E+00
389  3.8800000000000E+00  0.0000000000000E+00  0.0000000000000E+00
390  3.8900000000000E+00  0.0000000000000E+00  0.0000000000000E+00
391  3.9000000000000E+00  0.0000000000000E+00  0.0000000000000E+00
392  3.9100000000000E+00  0.0000000000000E+00  0.0000000000000E+00
393  3.9200000000000E+00  0.0000000000000E+00  0.0000000000000E+00
394  3.9300000000000E+00  0.0000000000000E+00  0.0000000000000E+00
395  3.9400000000000E+00  0.0000000000000E+00  0.0000000000000E+00
396  3.9500000000000E+00  0.0000000000000E+00  0.0000000000000E+00
397  3.9600000000000E+00  0.0000000000000E+00  0.0000000000000E+00
398  3.9700000000000E+00  0.0000000000000E+00  0.0000000000000E+00
399  3.9800000000000E+00  0.0000000000000E+00  0.0000000000000E+00
400  3.9900000000000E+00  0.0000000000000E+00  0.0000000000000E+00
401  4.0000000000000E+00  0.0000000000000E+00  0.0000000000000E+00
402  4.0100000000000E+00  0.0000000000000E+00  0.0000000000000E+00
403  4.0200000000000E+00  0.0000000000000E+00  0.0000000000000E+00
404  4.0300000000000E+00  0.0000000000000E+00  0.0000000000000E+00
405  4.0400000000000E+00  0.0000000000000E+00  0.0000000000000E+00
406  4.0500000000000E+00  0.0000000000000E+00  0.0000000000000E+00
407  4.0600000000000E+00  0.0000000000000E+00  0.0000000000000E+00
408  4.0700000000000E+00  0.0000000000000E+00  0.0000000000000E+00
409  4.0800000000000E+00  0.0000000000000E+00  0.0000000000000E+00
410  4.0900000000000E+00  0.0000000000000E+00  0.0000000000000E+00
411  4.1000000000000E+00  0.0000000000000E+00  0.0000000000000E+00
412  4.1100000000000E+00  0.0000000000000E+00  0.0000000000000E+00
413  4.1200000000000E+00  0.0000000000000E+00  0.0000000000000E+00
414  4.1300000000000E+00  0.0000000000000E+00  0.0000000000000E+00
415  4.1400000000000E+00  0.0000000000000E+00  0.0000000000000E+00
416  4.1500000000000E+00  0.0000000000000E+00  0.0000000000000E+00
417  4.1600000000000E+00  0.0000000000000E+00  0.0000000000000E+00
418  4.1700000000000E+00  0.0000000000000E+00  0.0000000000000E+00
419  4.1800000000000E+00  0.0000000000000E+00  0.0000000000000E+00
420  4.1900000000000E+00  0.0000000000000E+00  0.0000000000000E+00
421  4.2000000000000E+00  0.0000000000000E+00  0.0000000000000E+00
422  4.2100000000000E+00  0.0000000000000E+00  0.0000000000000E+00
423  4.2200000000000E+00  0.0000000000000E+00  0.0000000000000E+00
424  4.2300000000000E+00  0.0000000000000E+00  0.0000000000000E+00
425  4.2400000000000E+00  0.0000000000000E+00  0.0000000000000E+00
426  4.2500000000000E+00  0.0000000000000E+00  0.0000000000000E+00
427  4.2600000000000E+00  0.0000000000000E+00  0.0000000000000E+00
428  4.2700000000000E+00  0.0000000000000E+00  0.0000000000000E+00
429  4.2800000000000E+00  0.0000000000000E+00  0.0000000000000E+00
430  4.2900000000000E+00  0.0000000000000E+00  0.0000000000000E+00
431  4.3000000000000E+00  0.0000000000000E+00  0.0000000000000E+00
432  4.3100000000000E+00  0.0000000000000E+00  0.0000000000000E+00
433  4.3200000000000E+00  0.0000000000000E+00  0.0000000000000E+00
434  4.3300000000000E+00  0.0000000000000E+00  0.0000000000000E+00
435  4.3400000000000E+00  0.0000000000000E+00  0.0000000000000E+00
436  4.3500000000000E+00  0.0000000000000E+00  0.0000000000000E+00
437  4.3600000000000E+00  0.0000000000000E+00  0.0000000000000E+00
438  4.3700000000000E+00  0.0000000000000E+00  0.0000000000000E+00
439  4.3800000000000E+00  0.0000000000000E+00  0.0000000000000E+00
440  4.3900000000000E+00  0.0000000000000E+00  0.0000000000000E+00
441  4.4000000000000E+00  0.0000000000000E+00  0.0000000000000E+00
442  4.4100000000000E+00  0.0000000000000E+00  0.0000000000000E+00
443  4.4200000000000E+00  0.0000000000000E+00  0.0000000000000E+00