Ar    ONCVPSP-3.2.3.1  r_core=   1.56397   1.56397   1.56397
18.0000      8.0000      170504    zatom,zion,pspd
8      11   2     4   400     0    pspcod,pspxc,lmax,lloc,mmax,r2well
3.99000000  7.00000000  0.00000000    rchrg fchrg qchrg
2     2     2     0     0    nproj
1     1           extension_switch
0                         8.6063741332329E+00  4.5336939110641E-01
1  0.0000000000000E+00 -4.5924208880166E-11  2.5371654777118E-10
2  1.0000000000000E-02  6.3496552707496E-02 -3.8186271919523E-02
3  2.0000000000000E-02  1.2687647488419E-01 -7.6209270664863E-02
4  3.0000000000000E-02  1.9002345421709E-01 -1.1390649374726E-01
5  4.0000000000000E-02  2.5282181340175E-01 -1.5111697408808E-01
6  5.0000000000000E-02  3.1515682409052E-01 -1.8768203288743E-01
7  6.0000000000000E-02  3.7691501660666E-01 -2.2344601487136E-01
8  7.0000000000000E-02  4.3798448406727E-01 -2.5825700034511E-01
9  8.0000000000000E-02  4.9825517960403E-01 -2.9196748873370E-01
10  9.0000000000000E-02  5.5761920542720E-01 -3.2443504860199E-01
11  1.0000000000000E-01  6.1597109254434E-01 -3.5552292951137E-01
12  1.1000000000000E-01  6.7320807002048E-01 -3.8510063148444E-01
13  1.2000000000000E-01  7.2923032275025E-01 -4.1304442830710E-01
14  1.3000000000000E-01  7.8394123680254E-01 -4.3923784139471E-01
15  1.4000000000000E-01  8.3724763149596E-01 -4.6357206147843E-01
16  1.5000000000000E-01  8.8905997746466E-01 -4.8594631592331E-01
17  1.6000000000000E-01  9.3929260008052E-01 -5.0626818006467E-01
18  1.7000000000000E-01  9.8786386770625E-01 -5.2445383153688E-01
19  1.8000000000000E-01  1.0346963643642E+00 -5.4042824716024E-01
20  1.9000000000000E-01  1.0797170465165E+00 -5.5412534254257E-01
21  2.0000000000000E-01  1.1228573837611E+00 -5.6548805513306E-01
22  2.1000000000000E-01  1.1640534833571E+00 -5.7446837203031E-01
23  2.2000000000000E-01  1.2032461985959E+00 -5.8102730438840E-01
24  2.3000000000000E-01  1.2403812211348E+00 -5.8513481077660E-01
25  2.4000000000000E-01  1.2754091575054E+00 -5.8676967232420E-01
26  2.5000000000000E-01  1.3082855900954E+00 -5.8591932291655E-01
27  2.6000000000000E-01  1.3389711229841E+00 -5.8257963809601E-01
28  2.7000000000000E-01  1.3674314130861E+00 -5.7675468665763E-01
29  2.8000000000000E-01  1.3936371871191E+00 -5.6845644921060E-01
30  2.9000000000000E-01  1.4175642449686E+00 -5.5770450819907E-01
31  3.0000000000000E-01  1.4391934500669E+00 -5.4452571403707E-01
32  3.1000000000000E-01  1.4585107074397E+00 -5.2895383211151E-01
33  3.2000000000000E-01  1.4755069300973E+00 -5.1102917544208E-01
34  3.3000000000000E-01  1.4901779944638E+00 -4.9079822775895E-01
35  3.4000000000000E-01  1.5025246855433E+00 -4.6831326166700E-01
36  3.5000000000000E-01  1.5125526325155E+00 -4.4363195641346E-01
37  3.6000000000000E-01  1.5202722354416E+00 -4.1681701956339E-01
38  3.7000000000000E-01  1.5256985837368E+00 -3.8793581662059E-01
39  3.8000000000000E-01  1.5288513670365E+00 -3.5706001231110E-01
40  3.9000000000000E-01  1.5297547790438E+00 -3.2426522688009E-01
41  4.0000000000000E-01  1.5284374149017E+00 -2.8963071034357E-01
42  4.1000000000000E-01  1.5249321625842E+00 -2.5323903719019E-01
43  4.2000000000000E-01  1.5192760887432E+00 -2.1517582355287E-01
44  4.3000000000000E-01  1.5115103193917E+00 -1.7552946836993E-01
45  4.4000000000000E-01  1.5016799157437E+00 -1.3439091953993E-01
46  4.5000000000000E-01  1.4898337454668E+00 -9.1853465548043E-02
47  4.6000000000000E-01  1.4760243495440E+00 -4.8012552515451E-02
48  4.7000000000000E-01  1.4603078048805E+00 -2.9656261009377E-03
49  4.8000000000000E-01  1.4427435827317E+00  4.3188002825012E-02
50  4.9000000000000E-01  1.4233944029755E+00  9.0347270300620E-02
51  5.0000000000000E-01  1.4023260842016E+00  1.3840945121721E-01
52  5.1000000000000E-01  1.3796073895455E+00  1.8727023354232E-01
53  5.2000000000000E-01  1.3553098681590E+00  2.3682377766357E-01
54  5.3000000000000E-01  1.3295076921769E+00  2.8696276403493E-01
55  5.4000000000000E-01  1.3022774890181E+00  3.3757843259483E-01
56  5.5000000000000E-01  1.2736981688483E+00  3.8856061765856E-01
57  5.6000000000000E-01  1.2438507470246E+00  4.3979778215863E-01
58  5.7000000000000E-01  1.2128181613506E+00  4.9117705521597E-01
59  5.8000000000000E-01  1.1806850839859E+00  5.4258427706787E-01
60  5.9000000000000E-01  1.1475377278802E+00  5.9390405535541E-01
61  6.0000000000000E-01  1.1134636476373E+00  6.4501983668171E-01
62  6.1000000000000E-01  1.0785515347615E+00  6.9581399719431E-01
63  6.2000000000000E-01  1.0428910072922E+00  7.4616795572220E-01
64  6.3000000000000E-01  1.0065723938983E+00  7.9596231270892E-01
65  6.4000000000000E-01  9.6968651257206E-01  8.4507701783784E-01
66  6.5000000000000E-01  9.3232444414737E-01  8.9339156883996E-01
67  6.6000000000000E-01  8.9457730094493E-01  9.4078524351867E-01
68  6.7000000000000E-01  8.5653599094385E-01  9.8713736652687E-01
69  6.8000000000000E-01  8.1829097796971E-01  1.0323276118860E+00
70  6.9000000000000E-01  7.7993203848766E-01  1.0762363416648E+00
71  7.0000000000000E-01  7.4154801568706E-01  1.1187449806353E+00
72  7.1000000000000E-01  7.0322657164227E-01  1.1597364261044E+00
73  7.2000000000000E-01  6.6505393843113E-01  1.1990954914929E+00
74  7.3000000000000E-01  6.2711466918559E-01  1.2367093816065E+00
75  7.4000000000000E-01  5.8949139013814E-01  1.2724681969208E+00
76  7.5000000000000E-01  5.5226455480969E-01  1.3062654636034E+00
77  7.6000000000000E-01  5.1551220156035E-01  1.3379986854106E+00
78  7.7000000000000E-01  4.7930971578972E-01  1.3675699130594E+00
79  7.8000000000000E-01  4.4372959812944E-01  1.3948863261665E+00
80  7.9000000000000E-01  4.0884124001445E-01  1.4198608223948E+00
81  8.0000000000000E-01  3.7471070805084E-01  1.4424126080549E+00
82  8.1000000000000E-01  3.4140053861555E-01  1.4624677840692E+00
83  8.2000000000000E-01  3.0896954412632E-01  1.4799599209518E+00
84  8.3000000000000E-01  2.7747263240789E-01  1.4948306162616E+00
85  8.4000000000000E-01  2.4696064055233E-01  1.5070300278808E+00
86  8.5000000000000E-01  2.1748018462726E-01  1.5165173764443E+00
87  8.6000000000000E-01  1.8907352652530E-01  1.5232614102997E+00
88  8.7000000000000E-01  1.6177845917120E-01  1.5272408265255E+00
89  8.8000000000000E-01  1.3562821121086E-01  1.5284446417633E+00
90  8.9000000000000E-01  1.1065137219818E-01  1.5268725069343E+00
91  9.0000000000000E-01  8.6871839172909E-02  1.5225349603124E+00
92  9.1000000000000E-01  6.4308785385973E-02  1.5154536139012E+00
93  9.2000000000000E-01  4.2976651779197E-02  1.5056612686220E+00
94  9.3000000000000E-01  2.2885161665136E-02  1.4932019544434E+00
95  9.4000000000000E-01  4.0393588814949E-03  1.4781308922753E+00
96  9.5000000000000E-01 -1.3560330485259E-02  1.4605143751999E+00
97  9.6000000000000E-01 -2.9918012899135E-02  1.4404295674088E+00
98  9.7000000000000E-01 -4.5042218980183E-02  1.4179642200568E+00
99  9.8000000000000E-01 -5.8945772395181E-02  1.3932163041153E+00
100  9.9000000000000E-01 -7.1645636707438E-02  1.3662935612012E+00
101  1.0000000000000E+00 -8.3162741051344E-02  1.3373129742460E+00
102  1.0100000000000E+00 -9.3521785693699E-02  1.3064001608035E+00
103  1.0200000000000E+00 -1.0275102872440E-01  1.2736886926602E+00
104  1.0300000000000E+00 -1.1088205529863E-01  1.2393193462977E+00
105  1.0400000000000E+00 -1.1794953101988E-01  1.2034392895874E+00
106  1.0500000000000E+00 -1.2399094121234E-01  1.1662012109164E+00
107  1.0600000000000E+00 -1.2904631796247E-01  1.1277623976208E+00
108  1.0700000000000E+00 -1.3315795695135E-01  1.0882837713668E+00
109  1.0800000000000E+00 -1.3637012619611E-01  1.0479288886581E+00
110  1.0900000000000E+00 -1.3872876891330E-01  1.0068629151945E+00
111  1.1000000000000E+00 -1.4028120278440E-01  9.6525158323135E-01
112  1.1100000000000E+00 -1.4107581795113E-01  9.2326014141196E-01
113  1.1200000000000E+00 -1.4116177609701E-01  8.8105230680934E-01
114  1.1300000000000E+00 -1.4058871297026E-01  8.3878922900955E-01
115  1.1400000000000E+00 -1.3940644667247E-01  7.9662847605674E-01
116  1.1500000000000E+00 -1.3766469401442E-01  7.5472305205401E-01
117  1.1600000000000E+00 -1.3541279714700E-01  7.1322045593066E-01
118  1.1700000000000E+00 -1.3269946259361E-01  6.7226179058559E-01
119  1.1800000000000E+00 -1.2957251467478E-01  6.3198093110087E-01
120  1.1900000000000E+00 -1.2607866522912E-01  5.9250376038832E-01
121  1.2000000000000E+00 -1.2226330131004E-01  5.5394747971283E-01
122  1.2100000000000E+00 -1.1817029237072E-01  5.1642000081846E-01
123  1.2200000000000E+00 -1.1384181831029E-01  4.8001942579846E-01
124  1.2300000000000E+00 -1.0931821948136E-01  4.4483361967203E-01
125  1.2400000000000E+00 -1.0463786951360E-01  4.1093987953795E-01
126  1.2500000000000E+00 -9.9837071626924E-02  3.7840470337184E-01
127  1.2600000000000E+00 -9.4949978868964E-02  3.4728366047353E-01
128  1.2700000000000E+00 -9.0008538330447E-02  3.1762136383904E-01
129  1.2800000000000E+00 -8.5042459254016E-02  2.8945154409690E-01
130  1.2900000000000E+00 -8.0079204721004E-02  2.6279722360572E-01
131  1.3000000000000E+00 -7.5144006127660E-02  2.3767098711917E-01
132  1.3100000000000E+00 -7.0259899630021E-02  2.1407534527003E-01
133  1.3200000000000E+00 -6.5447783443569E-02  1.9200318577589E-01
134  1.3300000000000E+00 -6.0726494430709E-02  1.7143830513629E-01
135  1.3400000000000E+00 -5.6112902509629E-02  1.5235601406391E-01
136  1.3500000000000E+00 -5.1622020977281E-02  1.3472380782562E-01
137  1.3600000000000E+00 -4.7267130582881E-02  1.1850209143532E-01
138  1.3700000000000E+00 -4.3059915345994E-02  1.0364495040343E-01
139  1.3800000000000E+00 -3.9010607514526E-02  9.0100954888375E-02
140  1.3900000000000E+00 -3.5128139236162E-02  7.7813985930998E-02
141  1.4000000000000E+00 -3.1420298334456E-02  6.6724071599448E-02
142  1.4100000000000E+00 -2.7893885369693E-02  5.6768219815829E-02
143  1.4200000000000E+00 -2.4554869320849E-02  4.7881235412985E-02
144  1.4300000000000E+00 -2.1408538971286E-02  3.9996507714095E-02
145  1.4400000000000E+00 -1.8459647325966E-02  3.3046756086827E-02
146  1.4500000000000E+00 -1.5712546095184E-02  2.6964719546379E-02
147  1.4600000000000E+00 -1.3171306890950E-02  2.1683771691134E-02
148  1.4700000000000E+00 -1.0839831551086E-02  1.7138489708218E-02
149  1.4800000000000E+00 -8.7219281494616E-03  1.3265000614259E-02
150  1.4900000000000E+00 -6.8214221008478E-03  1.0001649327589E-02
151  1.5000000000000E+00 -5.1421706893920E-03  7.2889939502875E-03
152  1.5100000000000E+00 -3.6880886441904E-03  5.0688646785119E-03
153  1.5200000000000E+00 -2.4637952319806E-03  3.2883900371099E-03
154  1.5300000000000E+00 -1.4696707298522E-03  1.8981672511128E-03
155  1.5400000000000E+00 -7.1660515314328E-04  8.7070860707793E-04
156  1.5500000000000E+00 -2.2906798938872E-04  2.0191972386145E-04
157  1.5600000000000E+00  7.6276124528042E-06 -1.2442619792686E-04
158  1.5700000000000E+00  5.5281768672011E-05 -1.5129491365669E-04
159  1.5800000000000E+00  1.3227400423195E-05 -3.1845128072785E-05
160  1.5900000000000E+00 -1.1972816804946E-05  2.7682919340421E-05
161  1.6000000000000E+00 -2.8806585824447E-06  6.4810859340141E-06
162  1.6100000000000E+00  2.3825066758326E-06 -5.8100060651075E-06
163  1.6200000000000E+00  3.3981276216732E-07 -8.1697314499247E-07
164  1.6300000000000E+00 -1.2849887617037E-07  4.7916011324225E-07
165  1.6400000000000E+00 -7.7956426453436E-09  2.9069211529807E-08
166  1.6500000000000E+00  0.0000000000000E+00  0.0000000000000E+00
167  1.6600000000000E+00  0.0000000000000E+00  0.0000000000000E+00
168  1.6700000000000E+00  0.0000000000000E+00  0.0000000000000E+00
169  1.6800000000000E+00  0.0000000000000E+00  0.0000000000000E+00
170  1.6900000000000E+00  0.0000000000000E+00  0.0000000000000E+00
171  1.7000000000000E+00  0.0000000000000E+00  0.0000000000000E+00
172  1.7100000000000E+00  0.0000000000000E+00  0.0000000000000E+00
173  1.7200000000000E+00  0.0000000000000E+00  0.0000000000000E+00
174  1.7300000000000E+00  0.0000000000000E+00  0.0000000000000E+00
175  1.7400000000000E+00  0.0000000000000E+00  0.0000000000000E+00
176  1.7500000000000E+00  0.0000000000000E+00  0.0000000000000E+00
177  1.7600000000000E+00  0.0000000000000E+00  0.0000000000000E+00
178  1.7700000000000E+00  0.0000000000000E+00  0.0000000000000E+00
179  1.7800000000000E+00  0.0000000000000E+00  0.0000000000000E+00
180  1.7900000000000E+00  0.0000000000000E+00  0.0000000000000E+00
181  1.8000000000000E+00  0.0000000000000E+00  0.0000000000000E+00
182  1.8100000000000E+00  0.0000000000000E+00  0.0000000000000E+00
183  1.8200000000000E+00  0.0000000000000E+00  0.0000000000000E+00
184  1.8300000000000E+00  0.0000000000000E+00  0.0000000000000E+00
185  1.8400000000000E+00  0.0000000000000E+00  0.0000000000000E+00
186  1.8500000000000E+00  0.0000000000000E+00  0.0000000000000E+00
187  1.8600000000000E+00  0.0000000000000E+00  0.0000000000000E+00
188  1.8700000000000E+00  0.0000000000000E+00  0.0000000000000E+00
189  1.8800000000000E+00  0.0000000000000E+00  0.0000000000000E+00
190  1.8900000000000E+00  0.0000000000000E+00  0.0000000000000E+00
191  1.9000000000000E+00  0.0000000000000E+00  0.0000000000000E+00
192  1.9100000000000E+00  0.0000000000000E+00  0.0000000000000E+00
193  1.9200000000000E+00  0.0000000000000E+00  0.0000000000000E+00
194  1.9300000000000E+00  0.0000000000000E+00  0.0000000000000E+00
195  1.9400000000000E+00  0.0000000000000E+00  0.0000000000000E+00
196  1.9500000000000E+00  0.0000000000000E+00  0.0000000000000E+00
197  1.9600000000000E+00  0.0000000000000E+00  0.0000000000000E+00
198  1.9700000000000E+00  0.0000000000000E+00  0.0000000000000E+00
199  1.9800000000000E+00  0.0000000000000E+00  0.0000000000000E+00
200  1.9900000000000E+00  0.0000000000000E+00  0.0000000000000E+00
201  2.0000000000000E+00  0.0000000000000E+00  0.0000000000000E+00
202  2.0100000000000E+00  0.0000000000000E+00  0.0000000000000E+00
203  2.0200000000000E+00  0.0000000000000E+00  0.0000000000000E+00
204  2.0300000000000E+00  0.0000000000000E+00  0.0000000000000E+00
205  2.0400000000000E+00  0.0000000000000E+00  0.0000000000000E+00
206  2.0500000000000E+00  0.0000000000000E+00  0.0000000000000E+00
207  2.0600000000000E+00  0.0000000000000E+00  0.0000000000000E+00
208  2.0700000000000E+00  0.0000000000000E+00  0.0000000000000E+00
209  2.0800000000000E+00  0.0000000000000E+00  0.0000000000000E+00
210  2.0900000000000E+00  0.0000000000000E+00  0.0000000000000E+00
211  2.1000000000000E+00  0.0000000000000E+00  0.0000000000000E+00
212  2.1100000000000E+00  0.0000000000000E+00  0.0000000000000E+00
213  2.1200000000000E+00  0.0000000000000E+00  0.0000000000000E+00
214  2.1300000000000E+00  0.0000000000000E+00  0.0000000000000E+00
215  2.1400000000000E+00  0.0000000000000E+00  0.0000000000000E+00
216  2.1500000000000E+00  0.0000000000000E+00  0.0000000000000E+00
217  2.1600000000000E+00  0.0000000000000E+00  0.0000000000000E+00
218  2.1700000000000E+00  0.0000000000000E+00  0.0000000000000E+00
219  2.1800000000000E+00  0.0000000000000E+00  0.0000000000000E+00
220  2.1900000000000E+00  0.0000000000000E+00  0.0000000000000E+00
221  2.2000000000000E+00  0.0000000000000E+00  0.0000000000000E+00
222  2.2100000000000E+00  0.0000000000000E+00  0.0000000000000E+00
223  2.2200000000000E+00  0.0000000000000E+00  0.0000000000000E+00
224  2.2300000000000E+00  0.0000000000000E+00  0.0000000000000E+00
225  2.2400000000000E+00  0.0000000000000E+00  0.0000000000000E+00
226  2.2500000000000E+00  0.0000000000000E+00  0.0000000000000E+00
227  2.2600000000000E+00  0.0000000000000E+00  0.0000000000000E+00
228  2.2700000000000E+00  0.0000000000000E+00  0.0000000000000E+00
229  2.2800000000000E+00  0.0000000000000E+00  0.0000000000000E+00
230  2.2900000000000E+00  0.0000000000000E+00  0.0000000000000E+00
231  2.3000000000000E+00  0.0000000000000E+00  0.0000000000000E+00
232  2.3100000000000E+00  0.0000000000000E+00  0.0000000000000E+00
233  2.3200000000000E+00  0.0000000000000E+00  0.0000000000000E+00
234  2.3300000000000E+00  0.0000000000000E+00  0.0000000000000E+00
235  2.3400000000000E+00  0.0000000000000E+00  0.0000000000000E+00
236  2.3500000000000E+00  0.0000000000000E+00  0.0000000000000E+00
237  2.3600000000000E+00  0.0000000000000E+00  0.0000000000000E+00
238  2.3700000000000E+00  0.0000000000000E+00  0.0000000000000E+00
239  2.3800000000000E+00  0.0000000000000E+00  0.0000000000000E+00
240  2.3900000000000E+00  0.0000000000000E+00  0.0000000000000E+00
241  2.4000000000000E+00  0.0000000000000E+00  0.0000000000000E+00
242  2.4100000000000E+00  0.0000000000000E+00  0.0000000000000E+00
243  2.4200000000000E+00  0.0000000000000E+00  0.0000000000000E+00
244  2.4300000000000E+00  0.0000000000000E+00  0.0000000000000E+00
245  2.4400000000000E+00  0.0000000000000E+00  0.0000000000000E+00
246  2.4500000000000E+00  0.0000000000000E+00  0.0000000000000E+00
247  2.4600000000000E+00  0.0000000000000E+00  0.0000000000000E+00
248  2.4700000000000E+00  0.0000000000000E+00  0.0000000000000E+00
249  2.4800000000000E+00  0.0000000000000E+00  0.0000000000000E+00
250  2.4900000000000E+00  0.0000000000000E+00  0.0000000000000E+00
251  2.5000000000000E+00  0.0000000000000E+00  0.0000000000000E+00
252  2.5100000000000E+00  0.0000000000000E+00  0.0000000000000E+00
253  2.5200000000000E+00  0.0000000000000E+00  0.0000000000000E+00
254  2.5300000000000E+00  0.0000000000000E+00  0.0000000000000E+00
255  2.5400000000000E+00  0.0000000000000E+00  0.0000000000000E+00
256  2.5500000000000E+00  0.0000000000000E+00  0.0000000000000E+00
257  2.5600000000000E+00  0.0000000000000E+00  0.0000000000000E+00
258  2.5700000000000E+00  0.0000000000000E+00  0.0000000000000E+00
259  2.5800000000000E+00  0.0000000000000E+00  0.0000000000000E+00
260  2.5900000000000E+00  0.0000000000000E+00  0.0000000000000E+00
261  2.6000000000000E+00  0.0000000000000E+00  0.0000000000000E+00
262  2.6100000000000E+00  0.0000000000000E+00  0.0000000000000E+00
263  2.6200000000000E+00  0.0000000000000E+00  0.0000000000000E+00
264  2.6300000000000E+00  0.0000000000000E+00  0.0000000000000E+00
265  2.6400000000000E+00  0.0000000000000E+00  0.0000000000000E+00
266  2.6500000000000E+00  0.0000000000000E+00  0.0000000000000E+00
267  2.6600000000000E+00  0.0000000000000E+00  0.0000000000000E+00
268  2.6700000000000E+00  0.0000000000000E+00  0.0000000000000E+00
269  2.6800000000000E+00  0.0000000000000E+00  0.0000000000000E+00
270  2.6900000000000E+00  0.0000000000000E+00  0.0000000000000E+00
271  2.7000000000000E+00  0.0000000000000E+00  0.0000000000000E+00
272  2.7100000000000E+00  0.0000000000000E+00  0.0000000000000E+00
273  2.7200000000000E+00  0.0000000000000E+00  0.0000000000000E+00
274  2.7300000000000E+00  0.0000000000000E+00  0.0000000000000E+00
275  2.7400000000000E+00  0.0000000000000E+00  0.0000000000000E+00
276  2.7500000000000E+00  0.0000000000000E+00  0.0000000000000E+00
277  2.7600000000000E+00  0.0000000000000E+00  0.0000000000000E+00
278  2.7700000000000E+00  0.0000000000000E+00  0.0000000000000E+00
279  2.7800000000000E+00  0.0000000000000E+00  0.0000000000000E+00
280  2.7900000000000E+00  0.0000000000000E+00  0.0000000000000E+00
281  2.8000000000000E+00  0.0000000000000E+00  0.0000000000000E+00
282  2.8100000000000E+00  0.0000000000000E+00  0.0000000000000E+00
283  2.8200000000000E+00  0.0000000000000E+00  0.0000000000000E+00
284  2.8300000000000E+00  0.0000000000000E+00  0.0000000000000E+00
285  2.8400000000000E+00  0.0000000000000E+00  0.0000000000000E+00
286  2.8500000000000E+00  0.0000000000000E+00  0.0000000000000E+00
287  2.8600000000000E+00  0.0000000000000E+00  0.0000000000000E+00
288  2.8700000000000E+00  0.0000000000000E+00  0.0000000000000E+00
289  2.8800000000000E+00  0.0000000000000E+00  0.0000000000000E+00
290  2.8900000000000E+00  0.0000000000000E+00  0.0000000000000E+00
291  2.9000000000000E+00  0.0000000000000E+00  0.0000000000000E+00
292  2.9100000000000E+00  0.0000000000000E+00  0.0000000000000E+00
293  2.9200000000000E+00  0.0000000000000E+00  0.0000000000000E+00
294  2.9300000000000E+00  0.0000000000000E+00  0.0000000000000E+00
295  2.9400000000000E+00  0.0000000000000E+00  0.0000000000000E+00
296  2.9500000000000E+00  0.0000000000000E+00  0.0000000000000E+00
297  2.9600000000000E+00  0.0000000000000E+00  0.0000000000000E+00
298  2.9700000000000E+00  0.0000000000000E+00  0.0000000000000E+00
299  2.9800000000000E+00  0.0000000000000E+00  0.0000000000000E+00
300  2.9900000000000E+00  0.0000000000000E+00  0.0000000000000E+00
301  3.0000000000000E+00  0.0000000000000E+00  0.0000000000000E+00
302  3.0100000000000E+00  0.0000000000000E+00  0.0000000000000E+00
303  3.0200000000000E+00  0.0000000000000E+00  0.0000000000000E+00
304  3.0300000000000E+00  0.0000000000000E+00  0.0000000000000E+00
305  3.0400000000000E+00  0.0000000000000E+00  0.0000000000000E+00
306  3.0500000000000E+00  0.0000000000000E+00  0.0000000000000E+00
307  3.0600000000000E+00  0.0000000000000E+00  0.0000000000000E+00
308  3.0700000000000E+00  0.0000000000000E+00  0.0000000000000E+00
309  3.0800000000000E+00  0.0000000000000E+00  0.0000000000000E+00
310  3.0900000000000E+00  0.0000000000000E+00  0.0000000000000E+00
311  3.1000000000000E+00  0.0000000000000E+00  0.0000000000000E+00
312  3.1100000000000E+00  0.0000000000000E+00  0.0000000000000E+00
313  3.1200000000000E+00  0.0000000000000E+00  0.0000000000000E+00
314  3.1300000000000E+00  0.0000000000000E+00  0.0000000000000E+00
315  3.1400000000000E+00  0.0000000000000E+00  0.0000000000000E+00
316  3.1500000000000E+00  0.0000000000000E+00  0.0000000000000E+00
317  3.1600000000000E+00  0.0000000000000E+00  0.0000000000000E+00
318  3.1700000000000E+00  0.0000000000000E+00  0.0000000000000E+00
319  3.1800000000000E+00  0.0000000000000E+00  0.0000000000000E+00
320  3.1900000000000E+00  0.0000000000000E+00  0.0000000000000E+00
321  3.2000000000000E+00  0.0000000000000E+00  0.0000000000000E+00
322  3.2100000000000E+00  0.0000000000000E+00  0.0000000000000E+00
323  3.2200000000000E+00  0.0000000000000E+00  0.0000000000000E+00
324  3.2300000000000E+00  0.0000000000000E+00  0.0000000000000E+00
325  3.2400000000000E+00  0.0000000000000E+00  0.0000000000000E+00
326  3.2500000000000E+00  0.0000000000000E+00  0.0000000000000E+00
327  3.2600000000000E+00  0.0000000000000E+00  0.0000000000000E+00
328  3.2700000000000E+00  0.0000000000000E+00  0.0000000000000E+00
329  3.2800000000000E+00  0.0000000000000E+00  0.0000000000000E+00
330  3.2900000000000E+00  0.0000000000000E+00  0.0000000000000E+00
331  3.3000000000000E+00  0.0000000000000E+00  0.0000000000000E+00
332  3.3100000000000E+00  0.0000000000000E+00  0.0000000000000E+00
333  3.3200000000000E+00  0.0000000000000E+00  0.0000000000000E+00
334  3.3300000000000E+00  0.0000000000000E+00  0.0000000000000E+00
335  3.3400000000000E+00  0.0000000000000E+00  0.0000000000000E+00
336  3.3500000000000E+00  0.0000000000000E+00  0.0000000000000E+00
337  3.3600000000000E+00  0.0000000000000E+00  0.0000000000000E+00
338  3.3700000000000E+00  0.0000000000000E+00  0.0000000000000E+00
339  3.3800000000000E+00  0.0000000000000E+00  0.0000000000000E+00
340  3.3900000000000E+00  0.0000000000000E+00  0.0000000000000E+00
341  3.4000000000000E+00  0.0000000000000E+00  0.0000000000000E+00
342  3.4100000000000E+00  0.0000000000000E+00  0.0000000000000E+00
343  3.4200000000000E+00  0.0000000000000E+00  0.0000000000000E+00
344  3.4300000000000E+00  0.0000000000000E+00  0.0000000000000E+00
345  3.4400000000000E+00  0.0000000000000E+00  0.0000000000000E+00
346  3.4500000000000E+00  0.0000000000000E+00  0.0000000000000E+00
347  3.4600000000000E+00  0.0000000000000E+00  0.0000000000000E+00
348  3.4700000000000E+00  0.0000000000000E+00  0.0000000000000E+00
349  3.4800000000000E+00  0.0000000000000E+00  0.0000000000000E+00
350  3.4900000000000E+00  0.0000000000000E+00  0.0000000000000E+00
351  3.5000000000000E+00  0.0000000000000E+00  0.0000000000000E+00
352  3.5100000000000E+00  0.0000000000000E+00  0.0000000000000E+00
353  3.5200000000000E+00  0.0000000000000E+00  0.0000000000000E+00
354  3.5300000000000E+00  0.0000000000000E+00  0.0000000000000E+00
355  3.5400000000000E+00  0.0000000000000E+00  0.0000000000000E+00
356  3.5500000000000E+00  0.0000000000000E+00  0.0000000000000E+00
357  3.5600000000000E+00  0.0000000000000E+00  0.0000000000000E+00
358  3.5700000000000E+00  0.0000000000000E+00  0.0000000000000E+00
359  3.5800000000000E+00  0.0000000000000E+00  0.0000000000000E+00
360  3.5900000000000E+00  0.0000000000000E+00  0.0000000000000E+00
361  3.6000000000000E+00  0.0000000000000E+00  0.0000000000000E+00
362  3.6100000000000E+00  0.0000000000000E+00  0.0000000000000E+00
363  3.6200000000000E+00  0.0000000000000E+00  0.0000000000000E+00
364  3.6300000000000E+00  0.0000000000000E+00  0.0000000000000E+00
365  3.6400000000000E+00  0.0000000000000E+00  0.0000000000000E+00
366  3.6500000000000E+00  0.0000000000000E+00  0.0000000000000E+00
367  3.6600000000000E+00  0.0000000000000E+00  0.0000000000000E+00
368  3.6700000000000E+00  0.0000000000000E+00  0.0000000000000E+00
369  3.6800000000000E+00  0.0000000000000E+00  0.0000000000000E+00
370  3.6900000000000E+00  0.0000000000000E+00  0.0000000000000E+00
371  3.7000000000000E+00  0.0000000000000E+00  0.0000000000000E+00
372  3.7100000000000E+00  0.0000000000000E+00  0.0000000000000E+00
373  3.7200000000000E+00  0.0000000000000E+00  0.0000000000000E+00
374  3.7300000000000E+00  0.0000000000000E+00  0.0000000000000E+00
375  3.7400000000000E+00  0.0000000000000E+00  0.0000000000000E+00
376  3.7500000000000E+00  0.0000000000000E+00  0.0000000000000E+00
377  3.7600000000000E+00  0.0000000000000E+00  0.0000000000000E+00
378  3.7700000000000E+00  0.0000000000000E+00  0.0000000000000E+00
379  3.7800000000000E+00  0.0000000000000E+00  0.0000000000000E+00
380  3.7900000000000E+00  0.0000000000000E+00  0.0000000000000E+00
381  3.8000000000000E+00  0.0000000000000E+00  0.0000000000000E+00
382  3.8100000000000E+00  0.0000000000000E+00  0.0000000000000E+00
383  3.8200000000000E+00  0.0000000000000E+00  0.0000000000000E+00
384  3.8300000000000E+00  0.0000000000000E+00  0.0000000000000E+00
385  3.8400000000000E+00  0.0000000000000E+00  0.0000000000000E+00
386  3.8500000000000E+00  0.0000000000000E+00  0.0000000000000E+00
387  3.8600000000000E+00  0.0000000000000E+00  0.0000000000000E+00
388  3.8700000000000E+00  0.0000000000000E+00  0.0000000000000E+00
389  3.8800000000000E+00  0.0000000000000E+00  0.0000000000000E+00
390  3.8900000000000E+00  0.0000000000000E+00  0.0000000000000E+00
391  3.9000000000000E+00  0.0000000000000E+00  0.0000000000000E+00
392  3.9100000000000E+00  0.0000000000000E+00  0.0000000000000E+00
393  3.9200000000000E+00  0.0000000000000E+00  0.0000000000000E+00
394  3.9300000000000E+00  0.0000000000000E+00  0.0000000000000E+00
395  3.9400000000000E+00  0.0000000000000E+00  0.0000000000000E+00
396  3.9500000000000E+00  0.0000000000000E+00  0.0000000000000E+00
397  3.9600000000000E+00  0.0000000000000E+00  0.0000000000000E+00
398  3.9700000000000E+00  0.0000000000000E+00  0.0000000000000E+00
399  3.9800000000000E+00  0.0000000000000E+00  0.0000000000000E+00
400  3.9900000000000E+00  0.0000000000000E+00  0.0000000000000E+00
1                         2.4065329528100E+00  2.3972482152677E-01
1  0.0000000000000E+00  3.4787035751993E-10 -1.3554333280763E-09
2  1.0000000000000E-02  1.3891404826585E-03 -8.6524154508904E-04
3  2.0000000000000E-02  5.5512958191922E-03 -3.4540706614965E-03
4  3.0000000000000E-02  1.2470692838622E-02 -7.7458629967661E-03
5  4.0000000000000E-02  2.2121126609054E-02 -1.3706451214863E-02
6  5.0000000000000E-02  3.4466085299626E-02 -2.1288432215867E-02
7  6.0000000000000E-02  4.9458923659910E-02 -3.0431591967483E-02
8  7.0000000000000E-02  6.7043083807981E-02 -4.1063442762417E-02
9  8.0000000000000E-02  8.7152361670525E-02 -5.3099866360254E-02
10  9.0000000000000E-02  1.0971121708990E-01 -6.6445855211197E-02
11  1.0000000000000E-01  1.3463512530695E-01 -8.0996342806095E-02
12  1.1000000000000E-01  1.6183096724928E-01 -9.6637113173389E-02
13  1.2000000000000E-01  1.9119745580359E-01 -1.1324577865767E-01
14  1.3000000000000E-01  2.2262559503290E-01 -1.3069281438455E-01
15  1.4000000000000E-01  2.5599916911451E-01 -1.4884263724826E-01
16  1.5000000000000E-01  2.9119525762557E-01 -1.6755471685998E-01
17  1.6000000000000E-01  3.2808477369187E-01 -1.8668470567492E-01
18  1.7000000000000E-01  3.6653302144018E-01 -2.0608557547153E-01
19  1.8000000000000E-01  4.0640026915878E-01 -2.2560874749186E-01
20  1.9000000000000E-01  4.4754233457107E-01 -2.4510520386211E-01
21  2.0000000000000E-01  4.8981117866500E-01 -2.6442656839328E-01
22  2.1000000000000E-01  5.3305550459352E-01 -2.8342614550443E-01
23  2.2000000000000E-01  5.7712135826762E-01 -3.0195990680637E-01
24  2.3000000000000E-01  6.2185272740080E-01 -3.1988741581783E-01
25  2.4000000000000E-01  6.6709213592963E-01 -3.3707268234685E-01
26  2.5000000000000E-01  7.1268123092665E-01 -3.5338493923793E-01
27  2.6000000000000E-01  7.5846135933516E-01 -3.6869933544571E-01
28  2.7000000000000E-01  8.0427413208791E-01 -3.8289754072707E-01
29  2.8000000000000E-01  8.4996197341814E-01 -3.9586825862551E-01
30  2.9000000000000E-01  8.9536865342944E-01 -4.0750764583477E-01
31  3.0000000000000E-01  9.4033980225474E-01 -4.1771963744908E-01
32  3.1000000000000E-01  9.8472340440205E-01 -4.2641617901626E-01
33  3.2000000000000E-01  1.0283702721496E+00 -4.3351736768263E-01
34  3.3000000000000E-01  1.0711344971131E+00 -4.3895150603716E-01
35  3.4000000000000E-01  1.1128738793587E+00 -4.4265507350483E-01
36  3.5000000000000E-01  1.1534503336722E+00 -4.4457262128719E-01
37  3.6000000000000E-01  1.1927302728180E+00 -4.4465659788440E-01
38  3.7000000000000E-01  1.2305849678224E+00 -4.4286711314123E-01
39  3.8000000000000E-01  1.2668908854962E+00 -4.3917164952706E-01
40  3.9000000000000E-01  1.3015300035694E+00 -4.3354472997297E-01
41  4.0000000000000E-01  1.3343901039394E+00 -4.2596755204089E-01
42  4.1000000000000E-01  1.3653650446376E+00 -4.1642759848102E-01
43  4.2000000000000E-01  1.3943550111957E+00 -4.0491823434280E-01