Sc    ONCVPSP-3.2.3.1  r_core=   1.35663   1.35663   1.66161
21.0000     11.0000      170504    zatom,zion,pspd
8      11   2     4   600     0    pspcod,pspxc,lmax,lloc,mmax,r2well
5.99000000  5.00000000  0.00000000    rchrg fchrg qchrg
2     2     2     0     0    nproj
1     1           extension_switch
0                         1.0845476253506E+01  9.5462313069902E-01
1  0.0000000000000E+00  3.4765729184372E-09 -1.6175186967615E-08
2  1.0000000000000E-02  7.5078284673618E-02 -2.3462170466287E-02
3  2.0000000000000E-02  1.5004636982448E-01 -4.7041391851277E-02
4  3.0000000000000E-02  2.2479290409364E-01 -7.0847913776257E-02
5  4.0000000000000E-02  2.9920427034558E-01 -9.4978562011983E-02
6  5.0000000000000E-02  3.7316354659691E-01 -1.1951046912290E-01
7  6.0000000000000E-02  4.4654957696508E-01 -1.4449532427963E-01
8  7.0000000000000E-02  5.1923618510641E-01 -1.6995429573593E-01
9  8.0000000000000E-02  5.9109155913659E-01 -1.9587376329119E-01
10  9.0000000000000E-02  6.6197783283552E-01 -2.2220197856226E-01
11  1.0000000000000E-01  7.3175088313139E-01 -2.4884674852620E-01
12  1.1000000000000E-01  8.0026035854715E-01 -2.7567421309196E-01
13  1.2000000000000E-01  8.6734994760216E-01 -3.0250876099473E-01
14  1.3000000000000E-01  9.3285789022426E-01 -3.2913410070291E-01
15  1.4000000000000E-01  9.9661772918420E-01 -3.5529547493355E-01
16  1.5000000000000E-01  1.0584592925555E+00 -3.8070297945153E-01
17  1.6000000000000E-01  1.1182098923719E+00 -4.0503591973832E-01
18  1.7000000000000E-01  1.1756957191372E+00 -4.2794811350114E-01
19  1.8000000000000E-01  1.2307434067734E+00 -4.4907402346136E-01
20  1.9000000000000E-01  1.2831817380852E+00 -4.6803558397278E-01
21  2.0000000000000E-01  1.3328434569948E+00 -4.8444956727957E-01
22  2.1000000000000E-01  1.3795671507314E+00 -4.9793532105769E-01
23  2.2000000000000E-01  1.4231991629454E+00 -5.0812269864189E-01
24  2.3000000000000E-01  1.4635954973913E+00 -5.1465999727764E-01
25  2.4000000000000E-01  1.5006236714327E+00 -5.1722171801634E-01
26  2.5000000000000E-01  1.5341644791815E+00 -5.1551596354918E-01
27  2.6000000000000E-01  1.5641136255741E+00 -5.0929129730988E-01
28  2.7000000000000E-01  1.5903831950879E+00 -4.9834289842052E-01
29  2.8000000000000E-01  1.6129029220612E+00 -4.8251786226792E-01
30  2.9000000000000E-01  1.6316212336118E+00 -4.6171951533694E-01
31  3.0000000000000E-01  1.6465060408905E+00 -4.3591063497343E-01
32  3.1000000000000E-01  1.6575452597186E+00 -4.0511548949648E-01
33  3.2000000000000E-01  1.6647470474475E+00 -3.6942064096540E-01
34  3.3000000000000E-01  1.6681397489962E+00 -3.2897448130765E-01
35  3.4000000000000E-01  1.6677715513339E+00 -2.8398550177486E-01
36  3.5000000000000E-01  1.6637098520332E+00 -2.3471932513178E-01
37  3.6000000000000E-01  1.6560403537796E+00 -1.8149455890846E-01
38  3.7000000000000E-01  1.6448659027338E+00 -1.2467755577758E-01
39  3.8000000000000E-01  1.6303050942688E+00 -6.4676192999571E-02
40  3.9000000000000E-01  1.6124906747103E+00 -1.9328062895803E-03
41  4.0000000000000E-01  1.5915677721722E+00  6.3083566162461E-02
42  4.1000000000000E-01  1.5676919932963E+00  1.2988545693883E-01
43  4.2000000000000E-01  1.5410274255871E+00  1.9797557442929E-01
44  4.3000000000000E-01  1.5117445869974E+00  2.6685554555121E-01
45  4.4000000000000E-01  1.4800183654398E+00  3.3603459793434E-01
46  4.5000000000000E-01  1.4460259909149E+00  4.0503798386429E-01
47  4.6000000000000E-01  1.4099450819878E+00  4.7341495344743E-01
48  4.7000000000000E-01  1.3719518063937E+00  5.4074609419096E-01
49  4.8000000000000E-01  1.3322191926839E+00  6.0664986829048E-01
50  4.9000000000000E-01  1.2909156260710E+00  6.7078819708505E-01
51  5.0000000000000E-01  1.2482035570980E+00  7.3287096397782E-01
52  5.1000000000000E-01  1.2042384465387E+00  7.9265933214107E-01
53  5.2000000000000E-01  1.1591679641437E+00  8.4996780097646E-01
54  5.3000000000000E-01  1.1131314526311E+00  9.0466495494759E-01
55  5.4000000000000E-01  1.0662596618125E+00  9.5667288933178E-01
56  5.5000000000000E-01  1.0186747510951E+00  1.0059653290305E+00
57  5.6000000000000E-01  9.7049055197950E-01  1.0525644879540E+00
58  5.7000000000000E-01  9.2181307571852E-01  1.0965367470498E+00
59  5.8000000000000E-01  8.7274124518568E-01  1.1379872579819E+00
60  5.9000000000000E-01  8.2336782435907E-01  1.1770536060839E+00
61  6.0000000000000E-01  7.7378051379836E-01  1.2138986899290E+00
62  6.1000000000000E-01  7.2406317620644E-01  1.2487029950129E+00
63  6.2000000000000E-01  6.7429715272758E-01  1.2816564551841E+00
64  6.3000000000000E-01  6.2456262812551E-01  1.3129501071584E+00
65  6.4000000000000E-01  5.7494000148866E-01  1.3427677503618E+00
66  6.5000000000000E-01  5.2551121865174E-01  1.3712778263160E+00
67  6.6000000000000E-01  4.7636102314655E-01  1.3986257286230E+00
68  6.7000000000000E-01  4.2757808416292E-01  1.4249267465030E+00
69  6.8000000000000E-01  3.7925596272974E-01  1.4502598316956E+00
70  6.9000000000000E-01  3.3149388101882E-01  1.4746623608278E+00
71  7.0000000000000E-01  2.8439726427434E-01  1.4981260433421E+00
72  7.1000000000000E-01  2.3807803027346E-01  1.5205940992589E+00
73  7.2000000000000E-01  1.9265460733133E-01  1.5419598018769E+00
74  7.3000000000000E-01  1.4825166849206E-01  1.5620664488748E+00
75  7.4000000000000E-01  1.0499957659887E-01  1.5807087916109E+00
76  7.5000000000000E-01  6.3033542213694E-02  1.5976359176710E+00
77  7.6000000000000E-01  2.2492503695565E-02  1.6125555466532E+00
78  7.7000000000000E-01 -1.6482253981942E-02  1.6251396644138E+00
79  7.8000000000000E-01 -5.3748718144978E-02  1.6350313877365E+00
80  7.9000000000000E-01 -8.9165974996130E-02  1.6418529200313E+00
81  8.0000000000000E-01 -1.2259620785695E-01  1.6452144301817E+00
82  8.1000000000000E-01 -1.5390682589775E-01  1.6447236616746E+00
83  8.2000000000000E-01 -1.8297267787238E-01  1.6399960582840E+00
84  8.3000000000000E-01 -2.0967830206334E-01  1.6306651763786E+00
85  8.4000000000000E-01 -2.3392016141041E-01  1.6163931428094E+00
86  8.5000000000000E-01 -2.5560881171315E-01  1.5968809116264E+00
87  8.6000000000000E-01 -2.7467095090309E-01  1.5718780727702E+00
88  8.7000000000000E-01 -2.9105129869066E-01  1.5411919714581E+00
89  8.8000000000000E-01 -3.0471425839167E-01  1.5046959081727E+00
90  8.9000000000000E-01 -3.1564531638710E-01  1.4623362057841E+00
91  9.0000000000000E-01 -3.2385213940128E-01  1.4141379520772E+00
92  9.1000000000000E-01 -3.2936533550404E-01  1.3602092523780E+00
93  9.2000000000000E-01 -3.3223885133566E-01  1.3007438575446E+00
94  9.3000000000000E-01 -3.3254998538123E-01  1.2360220666488E+00
95  9.4000000000000E-01 -3.3039900502784E-01  1.1664098405121E+00
96  9.5000000000000E-01 -3.2590836345236E-01  1.0923561010543E+00
97  9.6000000000000E-01 -3.1922152092753E-01  1.0143882313318E+00
98  9.7000000000000E-01 -3.1050138369184E-01  9.3310583119107E-01
99  9.8000000000000E-01 -2.9992838206290E-01  8.4917282346818E-01
100  9.9000000000000E-01 -2.8769821726139E-01  7.6330804220995E-01
101  1.0000000000000E+00 -2.7401931432181E-01  6.7627447157670E-01
102  1.0100000000000E+00 -2.5911002504606E-01  5.8886733507889E-01
103  1.0200000000000E+00 -2.4319563101098E-01  5.0190126338629E-01
104  1.0300000000000E+00 -2.2650520158880E-01  4.1619679238734E-01
105  1.0400000000000E+00 -2.0926836577300E-01  3.3256646144152E-01
106  1.0500000000000E+00 -1.9171205911364E-01  2.5180079385751E-01
107  1.0600000000000E+00 -1.7405730850363E-01  1.7465444872941E-01
108  1.0700000000000E+00 -1.5651611740015E-01  1.0183283292661E-01
109  1.0800000000000E+00 -1.3928851270858E-01  3.3979456072226E-02
110  1.0900000000000E+00 -1.2255981161505E-01 -2.8335701991402E-02
111  1.1000000000000E+00 -1.0649816286652E-01 -8.4626559082736E-02
112  1.1100000000000E+00 -9.1252411783606E-02 -1.3449980571251E-01
113  1.1200000000000E+00 -7.6950331526893E-02 -1.7766209030571E-01
114  1.1300000000000E+00 -6.3697256000127E-02 -2.1392535067085E-01
115  1.1400000000000E+00 -5.1575141275517E-02 -2.4321016714629E-01
116  1.1500000000000E+00 -4.0642074871966E-02 -2.6554704787648E-01
117  1.1600000000000E+00 -3.0932240795208E-02 -2.8107560970225E-01
118  1.1700000000000E+00 -2.2456339711648E-02 -2.9004165782533E-01
119  1.1800000000000E+00 -1.5202454381701E-02 -2.9279221038501E-01
120  1.1900000000000E+00 -9.1373407943853E-03 -2.8976855912200E-01
121  1.2000000000000E+00 -4.2081150491054E-03 -2.8149750569233E-01
122  1.2100000000000E+00 -3.4429776482581E-04 -2.6858095168822E-01
123  1.2200000000000E+00  2.5398271949688E-03 -2.5168404365762E-01
124  1.2300000000000E+00  4.5425949464811E-03 -2.3152213057914E-01
125  1.2400000000000E+00  5.7721405735961E-03 -2.0884680315491E-01
126  1.2500000000000E+00  6.3434410719343E-03 -1.8443130468674E-01
127  1.2600000000000E+00  6.3752864195984E-03 -1.5905563119694E-01
128  1.2700000000000E+00  5.9872500000707E-03 -1.3349164890407E-01
129  1.2800000000000E+00  5.2967173391140E-03 -1.0848849944941E-01
130  1.2900000000000E+00  4.4160603968767E-03 -8.4758709519386E-02
131  1.3000000000000E+00  3.4499282861965E-03 -6.2964829134168E-02
132  1.3100000000000E+00  2.4934171291584E-03 -4.3711968094675E-02
133  1.3200000000000E+00  1.6289610624432E-03 -2.7531406622373E-02
134  1.3300000000000E+00  9.1635961563992E-04 -1.4772649608748E-02
135  1.3400000000000E+00  4.1787956642301E-04 -5.9702986120182E-03
136  1.3500000000000E+00  1.7096668743946E-04 -1.4611961303406E-03
137  1.3600000000000E+00  6.7169984194451E-05  1.5207911584790E-06
138  1.3700000000000E+00  9.6700181966173E-06  6.0733393269486E-05
139  1.3800000000000E+00 -5.5817701146632E-06 -5.5497956582088E-05
140  1.3900000000000E+00  2.2389912650406E-07  1.1602755605589E-06
141  1.4000000000000E+00  1.2405467986976E-06  7.8627893588163E-06
142  1.4100000000000E+00 -2.0006511634449E-07  5.4898033114924E-07
143  1.4200000000000E+00 -1.3431869622047E-07  3.6857161147314E-07
144  1.4300000000000E+00  0.0000000000000E+00  0.0000000000000E+00
145  1.4400000000000E+00  0.0000000000000E+00  0.0000000000000E+00
146  1.4500000000000E+00  0.0000000000000E+00  0.0000000000000E+00
147  1.4600000000000E+00  0.0000000000000E+00  0.0000000000000E+00
148  1.4700000000000E+00  0.0000000000000E+00  0.0000000000000E+00
149  1.4800000000000E+00  0.0000000000000E+00  0.0000000000000E+00
150  1.4900000000000E+00  0.0000000000000E+00  0.0000000000000E+00
151  1.5000000000000E+00  0.0000000000000E+00  0.0000000000000E+00
152  1.5100000000000E+00  0.0000000000000E+00  0.0000000000000E+00
153  1.5200000000000E+00  0.0000000000000E+00  0.0000000000000E+00
154  1.5300000000000E+00  0.0000000000000E+00  0.0000000000000E+00
155  1.5400000000000E+00  0.0000000000000E+00  0.0000000000000E+00
156  1.5500000000000E+00  0.0000000000000E+00  0.0000000000000E+00
157  1.5600000000000E+00  0.0000000000000E+00  0.0000000000000E+00
158  1.5700000000000E+00  0.0000000000000E+00  0.0000000000000E+00
159  1.5800000000000E+00  0.0000000000000E+00  0.0000000000000E+00
160  1.5900000000000E+00  0.0000000000000E+00  0.0000000000000E+00
161  1.6000000000000E+00  0.0000000000000E+00  0.0000000000000E+00
162  1.6100000000000E+00  0.0000000000000E+00  0.0000000000000E+00
163  1.6200000000000E+00  0.0000000000000E+00  0.0000000000000E+00
164  1.6300000000000E+00  0.0000000000000E+00  0.0000000000000E+00
165  1.6400000000000E+00  0.0000000000000E+00  0.0000000000000E+00
166  1.6500000000000E+00  0.0000000000000E+00  0.0000000000000E+00
167  1.6600000000000E+00  0.0000000000000E+00  0.0000000000000E+00
168  1.6700000000000E+00  0.0000000000000E+00  0.0000000000000E+00
169  1.6800000000000E+00  0.0000000000000E+00  0.0000000000000E+00
170  1.6900000000000E+00  0.0000000000000E+00  0.0000000000000E+00
171  1.7000000000000E+00  0.0000000000000E+00  0.0000000000000E+00
172  1.7100000000000E+00  0.0000000000000E+00  0.0000000000000E+00
173  1.7200000000000E+00  0.0000000000000E+00  0.0000000000000E+00
174  1.7300000000000E+00  0.0000000000000E+00  0.0000000000000E+00
175  1.7400000000000E+00  0.0000000000000E+00  0.0000000000000E+00
176  1.7500000000000E+00  0.0000000000000E+00  0.0000000000000E+00
177  1.7600000000000E+00  0.0000000000000E+00  0.0000000000000E+00
178  1.7700000000000E+00  0.0000000000000E+00  0.0000000000000E+00
179  1.7800000000000E+00  0.0000000000000E+00  0.0000000000000E+00
180  1.7900000000000E+00  0.0000000000000E+00  0.0000000000000E+00
181  1.8000000000000E+00  0.0000000000000E+00  0.0000000000000E+00
182  1.8100000000000E+00  0.0000000000000E+00  0.0000000000000E+00
183  1.8200000000000E+00  0.0000000000000E+00  0.0000000000000E+00
184  1.8300000000000E+00  0.0000000000000E+00  0.0000000000000E+00
185  1.8400000000000E+00  0.0000000000000E+00  0.0000000000000E+00
186  1.8500000000000E+00  0.0000000000000E+00  0.0000000000000E+00
187  1.8600000000000E+00  0.0000000000000E+00  0.0000000000000E+00
188  1.8700000000000E+00  0.0000000000000E+00  0.0000000000000E+00
189  1.8800000000000E+00  0.0000000000000E+00  0.0000000000000E+00
190  1.8900000000000E+00  0.0000000000000E+00  0.0000000000000E+00
191  1.9000000000000E+00  0.0000000000000E+00  0.0000000000000E+00
192  1.9100000000000E+00  0.0000000000000E+00  0.0000000000000E+00
193  1.9200000000000E+00  0.0000000000000E+00  0.0000000000000E+00
194  1.9300000000000E+00  0.0000000000000E+00  0.0000000000000E+00
195  1.9400000000000E+00  0.0000000000000E+00  0.0000000000000E+00
196  1.9500000000000E+00  0.0000000000000E+00  0.0000000000000E+00
197  1.9600000000000E+00  0.0000000000000E+00  0.0000000000000E+00
198  1.9700000000000E+00  0.0000000000000E+00  0.0000000000000E+00
199  1.9800000000000E+00  0.0000000000000E+00  0.0000000000000E+00
200  1.9900000000000E+00  0.0000000000000E+00  0.0000000000000E+00
201  2.0000000000000E+00  0.0000000000000E+00  0.0000000000000E+00
202  2.0100000000000E+00  0.0000000000000E+00  0.0000000000000E+00
203  2.0200000000000E+00  0.0000000000000E+00  0.0000000000000E+00
204  2.0300000000000E+00  0.0000000000000E+00  0.0000000000000E+00
205  2.0400000000000E+00  0.0000000000000E+00  0.0000000000000E+00
206  2.0500000000000E+00  0.0000000000000E+00  0.0000000000000E+00
207  2.0600000000000E+00  0.0000000000000E+00  0.0000000000000E+00
208  2.0700000000000E+00  0.0000000000000E+00  0.0000000000000E+00
209  2.0800000000000E+00  0.0000000000000E+00  0.0000000000000E+00
210  2.0900000000000E+00  0.0000000000000E+00  0.0000000000000E+00
211  2.1000000000000E+00  0.0000000000000E+00  0.0000000000000E+00
212  2.1100000000000E+00  0.0000000000000E+00  0.0000000000000E+00
213  2.1200000000000E+00  0.0000000000000E+00  0.0000000000000E+00
214  2.1300000000000E+00  0.0000000000000E+00  0.0000000000000E+00
215  2.1400000000000E+00  0.0000000000000E+00  0.0000000000000E+00
216  2.1500000000000E+00  0.0000000000000E+00  0.0000000000000E+00
217  2.1600000000000E+00  0.0000000000000E+00  0.0000000000000E+00
218  2.1700000000000E+00  0.0000000000000E+00  0.0000000000000E+00
219  2.1800000000000E+00  0.0000000000000E+00  0.0000000000000E+00
220  2.1900000000000E+00  0.0000000000000E+00  0.0000000000000E+00
221  2.2000000000000E+00  0.0000000000000E+00  0.0000000000000E+00
222  2.2100000000000E+00  0.0000000000000E+00  0.0000000000000E+00
223  2.2200000000000E+00  0.0000000000000E+00  0.0000000000000E+00
224  2.2300000000000E+00  0.0000000000000E+00  0.0000000000000E+00
225  2.2400000000000E+00  0.0000000000000E+00  0.0000000000000E+00
226  2.2500000000000E+00  0.0000000000000E+00  0.0000000000000E+00
227  2.2600000000000E+00  0.0000000000000E+00  0.0000000000000E+00
228  2.2700000000000E+00  0.0000000000000E+00  0.0000000000000E+00
229  2.2800000000000E+00  0.0000000000000E+00  0.0000000000000E+00
230  2.2900000000000E+00  0.0000000000000E+00  0.0000000000000E+00
231  2.3000000000000E+00  0.0000000000000E+00  0.0000000000000E+00
232  2.3100000000000E+00  0.0000000000000E+00  0.0000000000000E+00
233  2.3200000000000E+00  0.0000000000000E+00  0.0000000000000E+00
234  2.3300000000000E+00  0.0000000000000E+00  0.0000000000000E+00
235  2.3400000000000E+00  0.0000000000000E+00  0.0000000000000E+00
236  2.3500000000000E+00  0.0000000000000E+00  0.0000000000000E+00
237  2.3600000000000E+00  0.0000000000000E+00  0.0000000000000E+00
238  2.3700000000000E+00  0.0000000000000E+00  0.0000000000000E+00
239  2.3800000000000E+00  0.0000000000000E+00  0.0000000000000E+00
240  2.3900000000000E+00  0.0000000000000E+00  0.0000000000000E+00
241  2.4000000000000E+00  0.0000000000000E+00  0.0000000000000E+00
242  2.4100000000000E+00  0.0000000000000E+00  0.0000000000000E+00
243  2.4200000000000E+00  0.0000000000000E+00  0.0000000000000E+00
244  2.4300000000000E+00  0.0000000000000E+00  0.0000000000000E+00
245  2.4400000000000E+00  0.0000000000000E+00  0.0000000000000E+00
246  2.4500000000000E+00  0.0000000000000E+00  0.0000000000000E+00
247  2.4600000000000E+00  0.0000000000000E+00  0.0000000000000E+00
248  2.4700000000000E+00  0.0000000000000E+00  0.0000000000000E+00
249  2.4800000000000E+00  0.0000000000000E+00  0.0000000000000E+00
250  2.4900000000000E+00  0.0000000000000E+00  0.0000000000000E+00
251  2.5000000000000E+00  0.0000000000000E+00  0.0000000000000E+00
252  2.5100000000000E+00  0.0000000000000E+00  0.0000000000000E+00
253  2.5200000000000E+00  0.0000000000000E+00  0.0000000000000E+00
254  2.5300000000000E+00  0.0000000000000E+00  0.0000000000000E+00
255  2.5400000000000E+00  0.0000000000000E+00  0.0000000000000E+00
256  2.5500000000000E+00  0.0000000000000E+00  0.0000000000000E+00
257  2.5600000000000E+00  0.0000000000000E+00  0.0000000000000E+00
258  2.5700000000000E+00  0.0000000000000E+00  0.0000000000000E+00
259  2.5800000000000E+00  0.0000000000000E+00  0.0000000000000E+00
260  2.5900000000000E+00  0.0000000000000E+00  0.0000000000000E+00
261  2.6000000000000E+00  0.0000000000000E+00  0.0000000000000E+00
262  2.6100000000000E+00  0.0000000000000E+00  0.0000000000000E+00
263  2.6200000000000E+00  0.0000000000000E+00  0.0000000000000E+00
264  2.6300000000000E+00  0.0000000000000E+00  0.0000000000000E+00
265  2.6400000000000E+00  0.0000000000000E+00  0.0000000000000E+00
266  2.6500000000000E+00  0.0000000000000E+00  0.0000000000000E+00
267  2.6600000000000E+00  0.0000000000000E+00  0.0000000000000E+00
268  2.6700000000000E+00  0.0000000000000E+00  0.0000000000000E+00
269  2.6800000000000E+00  0.0000000000000E+00  0.0000000000000E+00
270  2.6900000000000E+00  0.0000000000000E+00  0.0000000000000E+00
271  2.7000000000000E+00  0.0000000000000E+00  0.0000000000000E+00
272  2.7100000000000E+00  0.0000000000000E+00  0.0000000000000E+00
273  2.7200000000000E+00  0.0000000000000E+00  0.0000000000000E+00
274  2.7300000000000E+00  0.0000000000000E+00  0.0000000000000E+00
275  2.7400000000000E+00  0.0000000000000E+00  0.0000000000000E+00
276  2.7500000000000E+00  0.0000000000000E+00  0.0000000000000E+00
277  2.7600000000000E+00  0.0000000000000E+00  0.0000000000000E+00
278  2.7700000000000E+00  0.0000000000000E+00  0.0000000000000E+00
279  2.7800000000000E+00  0.0000000000000E+00  0.0000000000000E+00
280  2.7900000000000E+00  0.0000000000000E+00  0.0000000000000E+00
281  2.8000000000000E+00  0.0000000000000E+00  0.0000000000000E+00
282  2.8100000000000E+00  0.0000000000000E+00  0.0000000000000E+00
283  2.8200000000000E+00  0.0000000000000E+00  0.0000000000000E+00
284  2.8300000000000E+00  0.0000000000000E+00  0.0000000000000E+00
285  2.8400000000000E+00  0.0000000000000E+00  0.0000000000000E+00
286  2.8500000000000E+00  0.0000000000000E+00  0.0000000000000E+00
287  2.8600000000000E+00  0.0000000000000E+00  0.0000000000000E+00
288  2.8700000000000E+00  0.0000000000000E+00  0.0000000000000E+00
289  2.8800000000000E+00  0.0000000000000E+00  0.0000000000000E+00
290  2.8900000000000E+00  0.0000000000000E+00  0.0000000000000E+00
291  2.9000000000000E+00  0.0000000000000E+00  0.0000000000000E+00
292  2.9100000000000E+00  0.0000000000000E+00  0.0000000000000E+00
293  2.9200000000000E+00  0.0000000000000E+00  0.0000000000000E+00
294  2.9300000000000E+00  0.0000000000000E+00  0.0000000000000E+00
295  2.9400000000000E+00  0.0000000000000E+00  0.0000000000000E+00
296  2.9500000000000E+00  0.0000000000000E+00  0.0000000000000E+00
297  2.9600000000000E+00  0.0000000000000E+00  0.0000000000000E+00
298  2.9700000000000E+00  0.0000000000000E+00  0.0000000000000E+00
299  2.9800000000000E+00  0.0000000000000E+00  0.0000000000000E+00
300  2.9900000000000E+00  0.0000000000000E+00  0.0000000000000E+00
301  3.0000000000000E+00  0.0000000000000E+00  0.0000000000000E+00
302  3.0100000000000E+00  0.0000000000000E+00  0.0000000000000E+00
303  3.0200000000000E+00  0.0000000000000E+00  0.0000000000000E+00
304  3.0300000000000E+00  0.0000000000000E+00  0.0000000000000E+00
305  3.0400000000000E+00  0.0000000000000E+00  0.0000000000000E+00
306  3.0500000000000E+00  0.0000000000000E+00  0.0000000000000E+00
307  3.0600000000000E+00  0.0000000000000E+00  0.0000000000000E+00
308  3.0700000000000E+00  0.0000000000000E+00  0.0000000000000E+00
309  3.0800000000000E+00  0.0000000000000E+00  0.0000000000000E+00
310  3.0900000000000E+00  0.0000000000000E+00  0.0000000000000E+00
311  3.1000000000000E+00  0.0000000000000E+00  0.0000000000000E+00
312  3.1100000000000E+00  0.0000000000000E+00  0.0000000000000E+00
313  3.1200000000000E+00  0.0000000000000E+00  0.0000000000000E+00
314  3.1300000000000E+00  0.0000000000000E+00  0.0000000000000E+00
315  3.1400000000000E+00  0.0000000000000E+00  0.0000000000000E+00
316  3.1500000000000E+00  0.0000000000000E+00  0.0000000000000E+00
317  3.1600000000000E+00  0.0000000000000E+00  0.0000000000000E+00
318  3.1700000000000E+00  0.0000000000000E+00  0.0000000000000E+00
319  3.1800000000000E+00  0.0000000000000E+00  0.0000000000000E+00
320  3.1900000000000E+00  0.0000000000000E+00  0.0000000000000E+00
321  3.2000000000000E+00  0.0000000000000E+00  0.0000000000000E+00
322  3.2100000000000E+00  0.0000000000000E+00  0.0000000000000E+00
323  3.2200000000000E+00  0.0000000000000E+00  0.0000000000000E+00
324  3.2300000000000E+00  0.0000000000000E+00  0.0000000000000E+00
325  3.2400000000000E+00  0.0000000000000E+00  0.0000000000000E+00
326  3.2500000000000E+00  0.0000000000000E+00  0.0000000000000E+00
327  3.2600000000000E+00  0.0000000000000E+00  0.0000000000000E+00
328  3.2700000000000E+00  0.0000000000000E+00  0.0000000000000E+00
329  3.2800000000000E+00  0.0000000000000E+00  0.0000000000000E+00
330  3.2900000000000E+00  0.0000000000000E+00  0.0000000000000E+00
331  3.3000000000000E+00  0.0000000000000E+00  0.0000000000000E+00
332  3.3100000000000E+00  0.0000000000000E+00  0.0000000000000E+00
333  3.3200000000000E+00  0.0000000000000E+00  0.0000000000000E+00
334  3.3300000000000E+00  0.0000000000000E+00  0.0000000000000E+00
335  3.3400000000000E+00  0.0000000000000E+00  0.0000000000000E+00
336  3.3500000000000E+00  0.0000000000000E+00  0.0000000000000E+00
337  3.3600000000000E+00  0.0000000000000E+00  0.0000000000000E+00
338  3.3700000000000E+00  0.0000000000000E+00  0.0000000000000E+00
339  3.3800000000000E+00  0.0000000000000E+00  0.0000000000000E+00
340  3.3900000000000E+00  0.0000000000000E+00  0.0000000000000E+00
341  3.4000000000000E+00  0.0000000000000E+00  0.0000000000000E+00
342  3.4100000000000E+00  0.0000000000000E+00  0.0000000000000E+00
343  3.4200000000000E+00  0.0000000000000E+00  0.0000000000000E+00
344  3.4300000000000E+00  0.0000000000000E+00  0.0000000000000E+00
345  3.4400000000000E+00  0.0000000000000E+00  0.0000000000000E+00
346  3.4500000000000E+00  0.0000000000000E+00  0.0000000000000E+00
347  3.4600000000000E+00  0.0000000000000E+00  0.0000000000000E+00
348  3.4700000000000E+00  0.0000000000000E+00  0.0000000000000E+00
349  3.4800000000000E+00  0.0000000000000E+00  0.0000000000000E+00
350  3.4900000000000E+00  0.0000000000000E+00  0.0000000000000E+00
351  3.5000000000000E+00  0.0000000000000E+00  0.0000000000000E+00
352  3.5100000000000E+00  0.0000000000000E+00  0.0000000000000E+00
353  3.5200000000000E+00  0.0000000000000E+00  0.0000000000000E+00
354  3.5300000000000E+00  0.0000000000000E+00  0.0000000000000E+00
355  3.5400000000000E+00  0.0000000000000E+00  0.0000000000000E+00
356  3.5500000000000E+00  0.0000000000000E+00  0.0000000000000E+00
357  3.5600000000000E+00  0.0000000000000E+00  0.0000000000000E+00
358  3.5700000000000E+00  0.0000000000000E+00  0.0000000000000E+00
359  3.5800000000000E+00  0.0000000000000E+00  0.0000000000000E+00
360  3.5900000000000E+00  0.0000000000000E+00  0.0000000000000E+00
361  3.6000000000000E+00  0.0000000000000E+00  0.0000000000000E+00
362  3.6100000000000E+00  0.0000000000000E+00  0.0000000000000E+00
363  3.6200000000000E+00  0.0000000000000E+00  0.0000000000000E+00
364  3.6300000000000E+00  0.0000000000000E+00  0.0000000000000E+00
365  3.6400000000000E+00  0.0000000000000E+00  0.0000000000000E+00
366  3.6500000000000E+00  0.0000000000000E+00  0.0000000000000E+00
367  3.6600000000000E+00  0.0000000000000E+00  0.0000000000000E+00
368  3.6700000000000E+00  0.0000000000000E+00  0.0000000000000E+00
369  3.6800000000000E+00  0.0000000000000E+00  0.0000000000000E+00
370  3.6900000000000E+00  0.0000000000000E+00  0.0000000000000E+00
371  3.7000000000000E+00  0.0000000000000E+00  0.0000000000000E+00
372  3.7100000000000E+00  0.0000000000000E+00  0.0000000000000E+00
373  3.7200000000000E+00  0.0000000000000E+00  0.0000000000000E+00
374  3.7300000000000E+00  0.0000000000000E+00  0.0000000000000E+00
375  3.7400000000000E+00  0.0000000000000E+00  0.0000000000000E+00
376  3.7500000000000E+00  0.0000000000000E+00  0.0000000000000E+00
377  3.7600000000000E+00  0.0000000000000E+00  0.0000000000000E+00
378  3.7700000000000E+00  0.0000000000000E+00  0.0000000000000E+00
379  3.7800000000000E+00  0.0000000000000E+00  0.0000000000000E+00
380  3.7900000000000E+00  0.0000000000000E+00  0.0000000000000E+00
381  3.8000000000000E+00  0.0000000000000E+00  0.0000000000000E+00
382  3.8100000000000E+00  0.0000000000000E+00  0.0000000000000E+00
383  3.8200000000000E+00  0.0000000000000E+00  0.0000000000000E+00
384  3.8300000000000E+00  0.0000000000000E+00  0.0000000000000E+00
385  3.8400000000000E+00  0.0000000000000E+00  0.0000000000000E+00
386  3.8500000000000E+00  0.0000000000000E+00  0.0000000000000E+00
387  3.8600000000000E+00  0.0000000000000E+00  0.0000000000000E+00
388  3.8700000000000E+00  0.0000000000000E+00  0.0000000000000E+00
389  3.8800000000000E+00  0.0000000000000E+00  0.0000000000000E+00
390  3.8900000000000E+00  0.0000000000000E+00  0.0000000000000E+00
391  3.9000000000000E+00  0.0000000000000E+00  0.0000000000000E+00
392  3.9100000000000E+00  0.0000000000000E+00  0.0000000000000E+00
393  3.9200000000000E+00  0.0000000000000E+00  0.0000000000000E+00
394  3.9300000000000E+00  0.0000000000000E+00  0.0000000000000E+00
395  3.9400000000000E+00  0.0000000000000E+00  0.0000000000000E+00
396  3.9500000000000E+00  0.0000000000000E+00  0.0000000000000E+00
397  3.9600000000000E+00  0.0000000000000E+00  0.0000000000000E+00
398  3.9700000000000E+00  0.0000000000000E+00  0.0000000000000E+00
399  3.9800000000000E+00  0.0000000000000E+00  0.0000000000000E+00
400  3.9900000000000E+00  0.0000000000000E+00  0.0000000000000E+00
401  4.0000000000000E+00  0.0000000000000E+00  0.0000000000000E+00
402  4.0100000000000E+00  0.0000000000000E+00  0.0000000000000E+00
403  4.0200000000000E+00  0.0000000000000E+00  0.0000000000000E+00
404  4.0300000000000E+00  0.0000000000000E+00  0.0000000000000E+00
405  4.0400000000000E+00  0.0000000000000E+00  0.0000000000000E+00
406  4.0500000000000E+00  0.0000000000000E+00  0.0000000000000E+00
407  4.0600000000000E+00  0.0000000000000E+00  0.0000000000000E+00
408  4.0700000000000E+00  0.0000000000000E+00  0.0000000000000E+00
409  4.0800000000000E+00  0.0000000000000E+00  0.0000000000000E+00
410  4.0900000000000E+00  0.0000000000000E+00  0.0000000000000E+00
411  4.1000000000000E+00  0.0000000000000E+00  0.0000000000000E+00
412  4.1100000000000E+00  0.0000000000000E+00  0.0000000000000E+00
413  4.1200000000000E+00  0.0000000000000E+00  0.0000000000000E+00
414  4.1300000000000E+00  0.0000000000000E+00  0.0000000000000E+00
415  4.1400000000000E+00  0.0000000000000E+00  0.0000000000000E+00
416  4.1500000000000E+00  0.0000000000000E+00  0.0000000000000E+00
417  4.1600000000000E+00  0.0000000000000E+00  0.0000000000000E+00
418  4.1700000000000E+00  0.0000000000000E+00  0.0000000000000E+00
419  4.1800000000000E+00  0.0000000000000E+00  0.0000000000000E+00
420  4.1900000000000E+00  0.0000000000000E+00  0.0000000000000E+00
421  4.2000000000000E+00  0.0000000000000E+00  0.0000000000000E+00
422  4.2100000000000E+00  0.0000000000000E+00  0.0000000000000E+00
423  4.2200000000000E+00  0.0000000000000E+00  0.0000000000000E+00
424  4.2300000000000E+00  0.0000000000000E+00  0.0000000000000E+00
425  4.2400000000000E+00  0.0000000000000E+00  0.0000000000000E+00
426  4.2500000000000E+00  0.0000000000000E+00  0.0000000000000E+00
427  4.2600000000000E+00  0.0000000000000E+00  0.0000000000000E+00
428  4.2700000000000E+00  0.0000000000000E+00  0.0000000000000E+00
429  4.2800000000000E+00  0.0000000000000E+00  0.0000000000000E+00
430  4.2900000000000E+00  0.0000000000000E+00  0.0000000000000E+00
431  4.3000000000000E+00  0.0000000000000E+00  0.0000000000000E+00
432  4.3100000000000E+00  0.0000000000000E+00  0.0000000000000E+00
433  4.3200000000000E+00  0.0000000000000E+00  0.0000000000000E+00
434  4.3300000000000E+00  0.0000000000000E+00  0.0000000000000E+00
435  4.3400000000000E+00  0.0000000000000E+00  0.0000000000000E+00
436  4.3500000000000E+00  0.0000000000000E+00  0.0000000000000E+00
437  4.3600000000000E+00  0.0000000000000E+00  0.0000000000000E+00
438  4.3700000000000E+00  0.0000000000000E+00  0.0000000000000E+00
439  4.3800000000000E+00  0.0000000000000E+00  0.0000000000000E+00
440  4.3900000000000E+00  0.0000000000000E+00  0.0000000000000E+00
441  4.4000000000000E+00  0.0000000000000E+00  0.0000000000000E+00
442  4.4100000000000E+00  0.0000000000000E+00  0.0000000000000E+00
443  4.4200000000000E+00  0.0000000000000E+00  0.0000000000000E+00