Cu    ONCVPSP-3.2.3.1  r_core=   1.20324   1.30802   1.60208
29.0000     19.0000      170504    zatom,zion,pspd
8      11   2     4   600     0    pspcod,pspxc,lmax,lloc,mmax,r2well
5.99000000  5.00000000  0.00000000    rchrg fchrg qchrg
2     2     2     0     0    nproj
1     1           extension_switch
0                         6.1472201243429E+00 -4.8650869250184E-01
1  0.0000000000000E+00 -4.8399302343682E-09 -1.4991107077922E-08
2  1.0000000000000E-02  1.1279901880890E-01  3.5122693312421E-02
3  2.0000000000000E-02  2.2507432439893E-01  6.9870017482903E-02
4  3.0000000000000E-02  3.3630659230113E-01  1.0387495183522E-01
5  4.0000000000000E-02  4.4598521002713E-01  1.3678698930031E-01
6  5.0000000000000E-02  5.5361247053678E-01  1.6827993886328E-01
7  6.0000000000000E-02  6.5870757422233E-01  1.9805919377011E-01
8  7.0000000000000E-02  7.6081038140914E-01  2.2586830547807E-01
9  8.0000000000000E-02  8.5948486221300E-01  2.5149471832469E-01
10  9.0000000000000E-02  9.5432219645334E-01  2.7477453802567E-01
11  1.0000000000000E-01  1.0449434830793E+00  2.9559622800791E-01
12  1.1000000000000E-01  1.1310020260819E+00  3.1390315079739E-01
13  1.2000000000000E-01  1.2121851719848E+00  3.2969489672014E-01
14  1.3000000000000E-01  1.2882156825604E+00  3.4302736850680E-01
15  1.4000000000000E-01  1.3588526352294E+00  3.5401161745557E-01
16  1.5000000000000E-01  1.4238918524916E+00  3.6281145402878E-01
17  1.6000000000000E-01  1.4831658705124E+00  3.6963988255208E-01
18  1.7000000000000E-01  1.5365434654817E+00  3.7475443547782E-01
19  1.8000000000000E-01  1.5839287643832E+00  3.7845150691101E-01
20  1.9000000000000E-01  1.6252599742060E+00  3.8105980725246E-01
21  2.0000000000000E-01  1.6605077702373E+00  3.8293308040844E-01
22  2.1000000000000E-01  1.6896733897641E+00  3.8444224161982E-01
23  2.2000000000000E-01  1.7127864821601E+00  3.8596710720833E-01
24  2.3000000000000E-01  1.7299027698541E+00  3.8788789712637E-01
25  2.4000000000000E-01  1.7411015769902E+00  3.9057669690729E-01
26  2.5000000000000E-01  1.7464832836565E+00  3.9438906730495E-01
27  2.6000000000000E-01  1.7461667633544E+00  3.9965598752984E-01
28  2.7000000000000E-01  1.7402868599222E+00  4.0667631156329E-01
29  2.8000000000000E-01  1.7289919574337E+00  4.1570990667883E-01
30  2.9000000000000E-01  1.7124416927447E+00  4.2697162922062E-01
31  3.0000000000000E-01  1.6908048554270E+00  4.4062627516474E-01
32  3.1000000000000E-01  1.6642575139324E+00  4.5678462237449E-01
33  3.2000000000000E-01  1.6329814000934E+00  4.7550065818166E-01
34  3.3000000000000E-01  1.5971625766443E+00  4.9677006046260E-01
35  3.4000000000000E-01  1.5569904044978E+00  5.2052997326654E-01
36  3.5000000000000E-01  1.5126568182245E+00  5.4666008986308E-01
37  3.6000000000000E-01  1.4643559097242E+00  5.7498502740608E-01
38  3.7000000000000E-01  1.4122838116593E+00  6.0527794887636E-01
39  3.8000000000000E-01  1.3566388640125E+00  6.3726536017730E-01
40  3.9000000000000E-01  1.2976220393336E+00  6.7063298382394E-01
41  4.0000000000000E-01  1.2354375950254E+00  7.0503258616300E-01
42  4.1000000000000E-01  1.1702939145547E+00  7.4008961303351E-01
43  4.2000000000000E-01  1.1024044939141E+00  7.7541146972047E-01
44  4.3000000000000E-01  1.0319890251376E+00  8.1059626540150E-01
45  4.4000000000000E-01  9.5927452529463E-01  8.4524183040698E-01
46  4.5000000000000E-01  8.8449645724886E-01  8.7895480679601E-01
47  4.6000000000000E-01  8.0789978762056E-01  9.1135960920062E-01
48  4.7000000000000E-01  7.2973992787551E-01  9.4210705372378E-01
49  4.8000000000000E-01  6.5028350628001E-01  9.7088245791873E-01
50  4.9000000000000E-01  5.6980892158417E-01  9.9741302445567E-01
51  5.0000000000000E-01  4.8860663367353E-01  1.0214743348400E+00
52  5.1000000000000E-01  4.0697915197346E-01  1.0428957972145E+00
53  5.2000000000000E-01  3.2524068900136E-01  1.0615649135441E+00
54  5.3000000000000E-01  2.4371645399809E-01  1.0774302559019E+00
55  5.4000000000000E-01  1.6274156987060E-01  1.0905030686512E+00
56  5.5000000000000E-01  8.2659605589792E-02  1.1008574425478E+00
57  5.6000000000000E-01  3.8207254917667E-03  1.1086290374987E+00
58  5.7000000000000E-01 -7.3420533558074E-02  1.1140123622901E+00
59  5.8000000000000E-01 -1.4870783665754E-01  1.1172566514395E+00
60  5.9000000000000E-01 -2.2168594726190E-01  1.1186604105751E+00
61  6.0000000000000E-01 -2.9200390683734E-01  1.1185647319916E+00
62  6.1000000000000E-01 -3.5931845091433E-01  1.1173455103145E+00
63  6.2000000000000E-01 -4.2329760725990E-01  1.1154047141536E+00
64  6.3000000000000E-01 -4.8362441547714E-01  1.1131608925268E+00
65  6.4000000000000E-01 -5.4000070210721E-01  1.1110391141156E+00
66  6.5000000000000E-01 -5.9215084134276E-01  1.1094605528247E+00
67  6.6000000000000E-01 -6.3982542893997E-01  1.1088319440128E+00
68  6.7000000000000E-01 -6.8280479586156E-01  1.1095351420746E+00
69  6.8000000000000E-01 -7.2090228868430E-01  1.1119170114900E+00
70  6.9000000000000E-01 -7.5396724587423E-01  1.1162798799063E+00
71  7.0000000000000E-01 -7.8188760263042E-01  1.1228727734161E+00
72  7.1000000000000E-01 -8.0459206212408E-01  1.1318836408973E+00
73  7.2000000000000E-01 -8.2205177749957E-01  1.1434327564264E+00
74  7.3000000000000E-01 -8.3428149684645E-01  1.1575674666688E+00
75  7.4000000000000E-01 -8.4134013239371E-01  1.1742584241214E+00
76  7.5000000000000E-01 -8.4333072517043E-01  1.1933974178494E+00
77  7.6000000000000E-01 -8.4039978725220E-01  1.2147968811581E+00
78  7.7000000000000E-01 -8.3273601514302E-01  1.2381911214432E+00
79  7.8000000000000E-01 -8.2056837965593E-01  1.2632392818154E+00
80  7.9000000000000E-01 -8.0416360961499E-01  1.2895300077146E+00
81  8.0000000000000E-01 -7.8382309854726E-01  1.3165877554330E+00
82  8.1000000000000E-01 -7.5987927502701E-01  1.3438806439806E+00
83  8.2000000000000E-01 -7.3269148823175E-01  1.3708297178257E+00
84  8.3000000000000E-01 -7.0264147033993E-01  1.3968194564442E+00
85  8.4000000000000E-01 -6.7012844642168E-01  1.4212093380127E+00
86  8.5000000000000E-01 -6.3556397024943E-01  1.4433462396078E+00
87  8.6000000000000E-01 -5.9936657080570E-01  1.4625774355001E+00
88  8.7000000000000E-01 -5.6195629904240E-01  1.4782639390294E+00
89  8.8000000000000E-01 -5.2374926752986E-01  1.4897939225120E+00
90  8.9000000000000E-01 -4.8515227693965E-01  1.4965959439491E+00
91  9.0000000000000E-01 -4.4655762278209E-01  1.4981517091485E+00
92  9.1000000000000E-01 -4.0833817345578E-01  1.4940081033109E+00
93  9.2000000000000E-01 -3.7084280648574E-01  1.4837882371143E+00
94  9.3000000000000E-01 -3.3439228389249E-01  1.4672012686769E+00
95  9.4000000000000E-01 -2.9927564004538E-01  1.4440507842254E+00
96  9.5000000000000E-01 -2.6574714624324E-01  1.4142415464340E+00
97  9.6000000000000E-01 -2.3402390580132E-01  1.3777844497519E+00
98  9.7000000000000E-01 -2.0428412182139E-01  1.3347995559471E+00
99  9.8000000000000E-01 -1.7666606716705E-01  1.2855171203136E+00
100  9.9000000000000E-01 -1.5126777305587E-01  1.2302765577309E+00
101  1.0000000000000E+00 -1.2814743898815E-01  1.1695233383758E+00
102  1.0100000000000E+00 -1.0732455267361E-01  1.1038038447402E+00
103  1.0200000000000E+00 -8.8781695107893E-02  1.0337582619383E+00
104  1.0300000000000E+00 -7.2466992497136E-02  9.6011161354933E-01
105  1.0400000000000E+00 -5.8297164021815E-02  8.8366309336311E-01
106  1.0500000000000E+00 -4.6161102544251E-02  8.0527387913517E-01
107  1.0600000000000E+00 -3.5923915284340E-02  7.2585364482036E-01
108  1.0700000000000E+00 -2.7431341298111E-02  6.4634601852285E-01
109  1.0800000000000E+00 -2.0514455686474E-02  5.6771325431689E-01
110  1.0900000000000E+00 -1.4994564154422E-02  4.9092040524060E-01
111  1.1000000000000E+00 -1.0688187709235E-02  4.1691929647549E-01
112  1.1100000000000E+00 -7.4120348216034E-03  3.4663260530922E-01
113  1.1200000000000E+00 -4.9878583521906E-03  2.8093835474469E-01
114  1.1300000000000E+00 -3.2470963735494E-03  2.2065512225368E-01
115  1.1400000000000E+00 -2.0352007971976E-03  1.6652825093266E-01
116  1.1500000000000E+00 -1.2155610803734E-03  1.1921734028085E-01
117  1.1600000000000E+00 -6.7294056147795E-04  7.9285262998325E-02
118  1.1700000000000E+00 -3.1635873689303E-04  4.7206883725351E-02
119  1.1800000000000E+00 -8.2330975068523E-05  2.3168437909921E-02
120  1.1900000000000E+00  7.0245167920548E-05  7.8273501769863E-03
121  1.2000000000000E+00  1.4725554711994E-04  1.1397747804051E-03
122  1.2100000000000E+00  8.3095022642220E-05 -2.5037404228655E-04
123  1.2200000000000E+00 -1.0520592228266E-05  5.6803559343982E-05
124  1.2300000000000E+00 -6.4865598692055E-06  4.3353639683042E-05
125  1.2400000000000E+00  3.6489286272784E-06 -1.6927768229485E-05
126  1.2500000000000E+00 -2.6197254749687E-07 -5.6317222296700E-07
127  1.2600000000000E+00 -1.6081964968071E-07 -3.4572004003031E-07
128  1.2700000000000E+00  0.0000000000000E+00  0.0000000000000E+00
129  1.2800000000000E+00  0.0000000000000E+00  0.0000000000000E+00
130  1.2900000000000E+00  0.0000000000000E+00  0.0000000000000E+00
131  1.3000000000000E+00  0.0000000000000E+00  0.0000000000000E+00
132  1.3100000000000E+00  0.0000000000000E+00  0.0000000000000E+00
133  1.3200000000000E+00  0.0000000000000E+00  0.0000000000000E+00
134  1.3300000000000E+00  0.0000000000000E+00  0.0000000000000E+00
135  1.3400000000000E+00  0.0000000000000E+00  0.0000000000000E+00
136  1.3500000000000E+00  0.0000000000000E+00  0.0000000000000E+00
137  1.3600000000000E+00  0.0000000000000E+00  0.0000000000000E+00
138  1.3700000000000E+00  0.0000000000000E+00  0.0000000000000E+00
139  1.3800000000000E+00  0.0000000000000E+00  0.0000000000000E+00
140  1.3900000000000E+00  0.0000000000000E+00  0.0000000000000E+00
141  1.4000000000000E+00  0.0000000000000E+00  0.0000000000000E+00
142  1.4100000000000E+00  0.0000000000000E+00  0.0000000000000E+00
143  1.4200000000000E+00  0.0000000000000E+00  0.0000000000000E+00
144  1.4300000000000E+00  0.0000000000000E+00  0.0000000000000E+00
145  1.4400000000000E+00  0.0000000000000E+00  0.0000000000000E+00
146  1.4500000000000E+00  0.0000000000000E+00  0.0000000000000E+00
147  1.4600000000000E+00  0.0000000000000E+00  0.0000000000000E+00
148  1.4700000000000E+00  0.0000000000000E+00  0.0000000000000E+00
149  1.4800000000000E+00  0.0000000000000E+00  0.0000000000000E+00
150  1.4900000000000E+00  0.0000000000000E+00  0.0000000000000E+00
151  1.5000000000000E+00  0.0000000000000E+00  0.0000000000000E+00
152  1.5100000000000E+00  0.0000000000000E+00  0.0000000000000E+00
153  1.5200000000000E+00  0.0000000000000E+00  0.0000000000000E+00
154  1.5300000000000E+00  0.0000000000000E+00  0.0000000000000E+00
155  1.5400000000000E+00  0.0000000000000E+00  0.0000000000000E+00
156  1.5500000000000E+00  0.0000000000000E+00  0.0000000000000E+00
157  1.5600000000000E+00  0.0000000000000E+00  0.0000000000000E+00
158  1.5700000000000E+00  0.0000000000000E+00  0.0000000000000E+00
159  1.5800000000000E+00  0.0000000000000E+00  0.0000000000000E+00
160  1.5900000000000E+00  0.0000000000000E+00  0.0000000000000E+00
161  1.6000000000000E+00  0.0000000000000E+00  0.0000000000000E+00
162  1.6100000000000E+00  0.0000000000000E+00  0.0000000000000E+00
163  1.6200000000000E+00  0.0000000000000E+00  0.0000000000000E+00
164  1.6300000000000E+00  0.0000000000000E+00  0.0000000000000E+00
165  1.6400000000000E+00  0.0000000000000E+00  0.0000000000000E+00
166  1.6500000000000E+00  0.0000000000000E+00  0.0000000000000E+00
167  1.6600000000000E+00  0.0000000000000E+00  0.0000000000000E+00
168  1.6700000000000E+00  0.0000000000000E+00  0.0000000000000E+00
169  1.6800000000000E+00  0.0000000000000E+00  0.0000000000000E+00
170  1.6900000000000E+00  0.0000000000000E+00  0.0000000000000E+00
171  1.7000000000000E+00  0.0000000000000E+00  0.0000000000000E+00
172  1.7100000000000E+00  0.0000000000000E+00  0.0000000000000E+00
173  1.7200000000000E+00  0.0000000000000E+00  0.0000000000000E+00
174  1.7300000000000E+00  0.0000000000000E+00  0.0000000000000E+00
175  1.7400000000000E+00  0.0000000000000E+00  0.0000000000000E+00
176  1.7500000000000E+00  0.0000000000000E+00  0.0000000000000E+00
177  1.7600000000000E+00  0.0000000000000E+00  0.0000000000000E+00
178  1.7700000000000E+00  0.0000000000000E+00  0.0000000000000E+00
179  1.7800000000000E+00  0.0000000000000E+00  0.0000000000000E+00
180  1.7900000000000E+00  0.0000000000000E+00  0.0000000000000E+00
181  1.8000000000000E+00  0.0000000000000E+00  0.0000000000000E+00
182  1.8100000000000E+00  0.0000000000000E+00  0.0000000000000E+00
183  1.8200000000000E+00  0.0000000000000E+00  0.0000000000000E+00
184  1.8300000000000E+00  0.0000000000000E+00  0.0000000000000E+00
185  1.8400000000000E+00  0.0000000000000E+00  0.0000000000000E+00
186  1.8500000000000E+00  0.0000000000000E+00  0.0000000000000E+00
187  1.8600000000000E+00  0.0000000000000E+00  0.0000000000000E+00
188  1.8700000000000E+00  0.0000000000000E+00  0.0000000000000E+00
189  1.8800000000000E+00  0.0000000000000E+00  0.0000000000000E+00
190  1.8900000000000E+00  0.0000000000000E+00  0.0000000000000E+00
191  1.9000000000000E+00  0.0000000000000E+00  0.0000000000000E+00
192  1.9100000000000E+00  0.0000000000000E+00  0.0000000000000E+00
193  1.9200000000000E+00  0.0000000000000E+00  0.0000000000000E+00
194  1.9300000000000E+00  0.0000000000000E+00  0.0000000000000E+00
195  1.9400000000000E+00  0.0000000000000E+00  0.0000000000000E+00
196  1.9500000000000E+00  0.0000000000000E+00  0.0000000000000E+00
197  1.9600000000000E+00  0.0000000000000E+00  0.0000000000000E+00
198  1.9700000000000E+00  0.0000000000000E+00  0.0000000000000E+00
199  1.9800000000000E+00  0.0000000000000E+00  0.0000000000000E+00
200  1.9900000000000E+00  0.0000000000000E+00  0.0000000000000E+00
201  2.0000000000000E+00  0.0000000000000E+00  0.0000000000000E+00
202  2.0100000000000E+00  0.0000000000000E+00  0.0000000000000E+00
203  2.0200000000000E+00  0.0000000000000E+00  0.0000000000000E+00
204  2.0300000000000E+00  0.0000000000000E+00  0.0000000000000E+00
205  2.0400000000000E+00  0.0000000000000E+00  0.0000000000000E+00
206  2.0500000000000E+00  0.0000000000000E+00  0.0000000000000E+00
207  2.0600000000000E+00  0.0000000000000E+00  0.0000000000000E+00
208  2.0700000000000E+00  0.0000000000000E+00  0.0000000000000E+00
209  2.0800000000000E+00  0.0000000000000E+00  0.0000000000000E+00
210  2.0900000000000E+00  0.0000000000000E+00  0.0000000000000E+00
211  2.1000000000000E+00  0.0000000000000E+00  0.0000000000000E+00
212  2.1100000000000E+00  0.0000000000000E+00  0.0000000000000E+00
213  2.1200000000000E+00  0.0000000000000E+00  0.0000000000000E+00
214  2.1300000000000E+00  0.0000000000000E+00  0.0000000000000E+00
215  2.1400000000000E+00  0.0000000000000E+00  0.0000000000000E+00
216  2.1500000000000E+00  0.0000000000000E+00  0.0000000000000E+00
217  2.1600000000000E+00  0.0000000000000E+00  0.0000000000000E+00
218  2.1700000000000E+00  0.0000000000000E+00  0.0000000000000E+00
219  2.1800000000000E+00  0.0000000000000E+00  0.0000000000000E+00
220  2.1900000000000E+00  0.0000000000000E+00  0.0000000000000E+00
221  2.2000000000000E+00  0.0000000000000E+00  0.0000000000000E+00
222  2.2100000000000E+00  0.0000000000000E+00  0.0000000000000E+00
223  2.2200000000000E+00  0.0000000000000E+00  0.0000000000000E+00
224  2.2300000000000E+00  0.0000000000000E+00  0.0000000000000E+00
225  2.2400000000000E+00  0.0000000000000E+00  0.0000000000000E+00
226  2.2500000000000E+00  0.0000000000000E+00  0.0000000000000E+00
227  2.2600000000000E+00  0.0000000000000E+00  0.0000000000000E+00
228  2.2700000000000E+00  0.0000000000000E+00  0.0000000000000E+00
229  2.2800000000000E+00  0.0000000000000E+00  0.0000000000000E+00
230  2.2900000000000E+00  0.0000000000000E+00  0.0000000000000E+00
231  2.3000000000000E+00  0.0000000000000E+00  0.0000000000000E+00
232  2.3100000000000E+00  0.0000000000000E+00  0.0000000000000E+00
233  2.3200000000000E+00  0.0000000000000E+00  0.0000000000000E+00
234  2.3300000000000E+00  0.0000000000000E+00  0.0000000000000E+00
235  2.3400000000000E+00  0.0000000000000E+00  0.0000000000000E+00
236  2.3500000000000E+00  0.0000000000000E+00  0.0000000000000E+00
237  2.3600000000000E+00  0.0000000000000E+00  0.0000000000000E+00
238  2.3700000000000E+00  0.0000000000000E+00  0.0000000000000E+00
239  2.3800000000000E+00  0.0000000000000E+00  0.0000000000000E+00
240  2.3900000000000E+00  0.0000000000000E+00  0.0000000000000E+00
241  2.4000000000000E+00  0.0000000000000E+00  0.0000000000000E+00
242  2.4100000000000E+00  0.0000000000000E+00  0.0000000000000E+00
243  2.4200000000000E+00  0.0000000000000E+00  0.0000000000000E+00
244  2.4300000000000E+00  0.0000000000000E+00  0.0000000000000E+00
245  2.4400000000000E+00  0.0000000000000E+00  0.0000000000000E+00
246  2.4500000000000E+00  0.0000000000000E+00  0.0000000000000E+00
247  2.4600000000000E+00  0.0000000000000E+00  0.0000000000000E+00
248  2.4700000000000E+00  0.0000000000000E+00  0.0000000000000E+00
249  2.4800000000000E+00  0.0000000000000E+00  0.0000000000000E+00
250  2.4900000000000E+00  0.0000000000000E+00  0.0000000000000E+00
251  2.5000000000000E+00  0.0000000000000E+00  0.0000000000000E+00
252  2.5100000000000E+00  0.0000000000000E+00  0.0000000000000E+00
253  2.5200000000000E+00  0.0000000000000E+00  0.0000000000000E+00
254  2.5300000000000E+00  0.0000000000000E+00  0.0000000000000E+00
255  2.5400000000000E+00  0.0000000000000E+00  0.0000000000000E+00
256  2.5500000000000E+00  0.0000000000000E+00  0.0000000000000E+00
257  2.5600000000000E+00  0.0000000000000E+00  0.0000000000000E+00
258  2.5700000000000E+00  0.0000000000000E+00  0.0000000000000E+00
259  2.5800000000000E+00  0.0000000000000E+00  0.0000000000000E+00
260  2.5900000000000E+00  0.0000000000000E+00  0.0000000000000E+00
261  2.6000000000000E+00  0.0000000000000E+00  0.0000000000000E+00
262  2.6100000000000E+00  0.0000000000000E+00  0.0000000000000E+00
263  2.6200000000000E+00  0.0000000000000E+00  0.0000000000000E+00
264  2.6300000000000E+00  0.0000000000000E+00  0.0000000000000E+00
265  2.6400000000000E+00  0.0000000000000E+00  0.0000000000000E+00
266  2.6500000000000E+00  0.0000000000000E+00  0.0000000000000E+00
267  2.6600000000000E+00  0.0000000000000E+00  0.0000000000000E+00
268  2.6700000000000E+00  0.0000000000000E+00  0.0000000000000E+00
269  2.6800000000000E+00  0.0000000000000E+00  0.0000000000000E+00
270  2.6900000000000E+00  0.0000000000000E+00  0.0000000000000E+00
271  2.7000000000000E+00  0.0000000000000E+00  0.0000000000000E+00
272  2.7100000000000E+00  0.0000000000000E+00  0.0000000000000E+00
273  2.7200000000000E+00  0.0000000000000E+00  0.0000000000000E+00
274  2.7300000000000E+00  0.0000000000000E+00  0.0000000000000E+00
275  2.7400000000000E+00  0.0000000000000E+00  0.0000000000000E+00
276  2.7500000000000E+00  0.0000000000000E+00  0.0000000000000E+00
277  2.7600000000000E+00  0.0000000000000E+00  0.0000000000000E+00
278  2.7700000000000E+00  0.0000000000000E+00  0.0000000000000E+00
279  2.7800000000000E+00  0.0000000000000E+00  0.0000000000000E+00
280  2.7900000000000E+00  0.0000000000000E+00  0.0000000000000E+00
281  2.8000000000000E+00  0.0000000000000E+00  0.0000000000000E+00
282  2.8100000000000E+00  0.0000000000000E+00  0.0000000000000E+00
283  2.8200000000000E+00  0.0000000000000E+00  0.0000000000000E+00
284  2.8300000000000E+00  0.0000000000000E+00  0.0000000000000E+00
285  2.8400000000000E+00  0.0000000000000E+00  0.0000000000000E+00
286  2.8500000000000E+00  0.0000000000000E+00  0.0000000000000E+00
287  2.8600000000000E+00  0.0000000000000E+00  0.0000000000000E+00
288  2.8700000000000E+00  0.0000000000000E+00  0.0000000000000E+00
289  2.8800000000000E+00  0.0000000000000E+00  0.0000000000000E+00
290  2.8900000000000E+00  0.0000000000000E+00  0.0000000000000E+00
291  2.9000000000000E+00  0.0000000000000E+00  0.0000000000000E+00
292  2.9100000000000E+00  0.0000000000000E+00  0.0000000000000E+00
293  2.9200000000000E+00  0.0000000000000E+00  0.0000000000000E+00
294  2.9300000000000E+00  0.0000000000000E+00  0.0000000000000E+00
295  2.9400000000000E+00  0.0000000000000E+00  0.0000000000000E+00
296  2.9500000000000E+00  0.0000000000000E+00  0.0000000000000E+00
297  2.9600000000000E+00  0.0000000000000E+00  0.0000000000000E+00
298  2.9700000000000E+00  0.0000000000000E+00  0.0000000000000E+00
299  2.9800000000000E+00  0.0000000000000E+00  0.0000000000000E+00
300  2.9900000000000E+00  0.0000000000000E+00  0.0000000000000E+00
301  3.0000000000000E+00  0.0000000000000E+00  0.0000000000000E+00
302  3.0100000000000E+00  0.0000000000000E+00  0.0000000000000E+00
303  3.0200000000000E+00  0.0000000000000E+00  0.0000000000000E+00
304  3.0300000000000E+00  0.0000000000000E+00  0.0000000000000E+00
305  3.0400000000000E+00  0.0000000000000E+00  0.0000000000000E+00
306  3.0500000000000E+00  0.0000000000000E+00  0.0000000000000E+00
307  3.0600000000000E+00  0.0000000000000E+00  0.0000000000000E+00
308  3.0700000000000E+00  0.0000000000000E+00  0.0000000000000E+00
309  3.0800000000000E+00  0.0000000000000E+00  0.0000000000000E+00
310  3.0900000000000E+00  0.0000000000000E+00  0.0000000000000E+00
311  3.1000000000000E+00  0.0000000000000E+00  0.0000000000000E+00
312  3.1100000000000E+00  0.0000000000000E+00  0.0000000000000E+00
313  3.1200000000000E+00  0.0000000000000E+00  0.0000000000000E+00
314  3.1300000000000E+00  0.0000000000000E+00  0.0000000000000E+00
315  3.1400000000000E+00  0.0000000000000E+00  0.0000000000000E+00
316  3.1500000000000E+00  0.0000000000000E+00  0.0000000000000E+00
317  3.1600000000000E+00  0.0000000000000E+00  0.0000000000000E+00
318  3.1700000000000E+00  0.0000000000000E+00  0.0000000000000E+00
319  3.1800000000000E+00  0.0000000000000E+00  0.0000000000000E+00
320  3.1900000000000E+00  0.0000000000000E+00  0.0000000000000E+00
321  3.2000000000000E+00  0.0000000000000E+00  0.0000000000000E+00
322  3.2100000000000E+00  0.0000000000000E+00  0.0000000000000E+00
323  3.2200000000000E+00  0.0000000000000E+00  0.0000000000000E+00
324  3.2300000000000E+00  0.0000000000000E+00  0.0000000000000E+00
325  3.2400000000000E+00  0.0000000000000E+00  0.0000000000000E+00
326  3.2500000000000E+00  0.0000000000000E+00  0.0000000000000E+00
327  3.2600000000000E+00  0.0000000000000E+00  0.0000000000000E+00
328  3.2700000000000E+00  0.0000000000000E+00  0.0000000000000E+00
329  3.2800000000000E+00  0.0000000000000E+00  0.0000000000000E+00
330  3.2900000000000E+00  0.0000000000000E+00  0.0000000000000E+00
331  3.3000000000000E+00  0.0000000000000E+00  0.0000000000000E+00
332  3.3100000000000E+00  0.0000000000000E+00  0.0000000000000E+00
333  3.3200000000000E+00  0.0000000000000E+00  0.0000000000000E+00
334  3.3300000000000E+00  0.0000000000000E+00  0.0000000000000E+00
335  3.3400000000000E+00  0.0000000000000E+00  0.0000000000000E+00
336  3.3500000000000E+00  0.0000000000000E+00  0.0000000000000E+00
337  3.3600000000000E+00  0.0000000000000E+00  0.0000000000000E+00
338  3.3700000000000E+00  0.0000000000000E+00  0.0000000000000E+00
339  3.3800000000000E+00  0.0000000000000E+00  0.0000000000000E+00
340  3.3900000000000E+00  0.0000000000000E+00  0.0000000000000E+00
341  3.4000000000000E+00  0.0000000000000E+00  0.0000000000000E+00
342  3.4100000000000E+00  0.0000000000000E+00  0.0000000000000E+00
343  3.4200000000000E+00  0.0000000000000E+00  0.0000000000000E+00
344  3.4300000000000E+00  0.0000000000000E+00  0.0000000000000E+00
345  3.4400000000000E+00  0.0000000000000E+00  0.0000000000000E+00
346  3.4500000000000E+00  0.0000000000000E+00  0.0000000000000E+00
347  3.4600000000000E+00  0.0000000000000E+00  0.0000000000000E+00
348  3.4700000000000E+00  0.0000000000000E+00  0.0000000000000E+00
349  3.4800000000000E+00  0.0000000000000E+00  0.0000000000000E+00
350  3.4900000000000E+00  0.0000000000000E+00  0.0000000000000E+00
351  3.5000000000000E+00  0.0000000000000E+00  0.0000000000000E+00
352  3.5100000000000E+00  0.0000000000000E+00  0.0000000000000E+00
353  3.5200000000000E+00  0.0000000000000E+00  0.0000000000000E+00
354  3.5300000000000E+00  0.0000000000000E+00  0.0000000000000E+00
355  3.5400000000000E+00  0.0000000000000E+00  0.0000000000000E+00
356  3.5500000000000E+00  0.0000000000000E+00  0.0000000000000E+00
357  3.5600000000000E+00  0.0000000000000E+00  0.0000000000000E+00
358  3.5700000000000E+00  0.0000000000000E+00  0.0000000000000E+00
359  3.5800000000000E+00  0.0000000000000E+00  0.0000000000000E+00
360  3.5900000000000E+00  0.0000000000000E+00  0.0000000000000E+00
361  3.6000000000000E+00  0.0000000000000E+00  0.0000000000000E+00
362  3.6100000000000E+00  0.0000000000000E+00  0.0000000000000E+00
363  3.6200000000000E+00  0.0000000000000E+00  0.0000000000000E+00
364  3.6300000000000E+00  0.0000000000000E+00  0.0000000000000E+00
365  3.6400000000000E+00  0.0000000000000E+00  0.0000000000000E+00
366  3.6500000000000E+00  0.0000000000000E+00  0.0000000000000E+00
367  3.6600000000000E+00  0.0000000000000E+00  0.0000000000000E+00
368  3.6700000000000E+00  0.0000000000000E+00  0.0000000000000E+00
369  3.6800000000000E+00  0.0000000000000E+00  0.0000000000000E+00
370  3.6900000000000E+00  0.0000000000000E+00  0.0000000000000E+00
371  3.7000000000000E+00  0.0000000000000E+00  0.0000000000000E+00
372  3.7100000000000E+00  0.0000000000000E+00  0.0000000000000E+00
373  3.7200000000000E+00  0.0000000000000E+00  0.0000000000000E+00
374  3.7300000000000E+00  0.0000000000000E+00  0.0000000000000E+00
375  3.7400000000000E+00  0.0000000000000E+00  0.0000000000000E+00
376  3.7500000000000E+00  0.0000000000000E+00  0.0000000000000E+00
377  3.7600000000000E+00  0.0000000000000E+00  0.0000000000000E+00
378  3.7700000000000E+00  0.0000000000000E+00  0.0000000000000E+00
379  3.7800000000000E+00  0.0000000000000E+00  0.0000000000000E+00
380  3.7900000000000E+00  0.0000000000000E+00  0.0000000000000E+00
381  3.8000000000000E+00  0.0000000000000E+00  0.0000000000000E+00
382  3.8100000000000E+00  0.0000000000000E+00  0.0000000000000E+00
383  3.8200000000000E+00  0.0000000000000E+00  0.0000000000000E+00
384  3.8300000000000E+00  0.0000000000000E+00  0.0000000000000E+00
385  3.8400000000000E+00  0.0000000000000E+00  0.0000000000000E+00
386  3.8500000000000E+00  0.0000000000000E+00  0.0000000000000E+00
387  3.8600000000000E+00  0.0000000000000E+00  0.0000000000000E+00
388  3.8700000000000E+00  0.0000000000000E+00  0.0000000000000E+00
389  3.8800000000000E+00  0.0000000000000E+00  0.0000000000000E+00
390  3.8900000000000E+00  0.0000000000000E+00  0.0000000000000E+00
391  3.9000000000000E+00  0.0000000000000E+00  0.0000000000000E+00
392  3.9100000000000E+00  0.0000000000000E+00  0.0000000000000E+00
393  3.9200000000000E+00  0.0000000000000E+00  0.0000000000000E+00
394  3.9300000000000E+00  0.0000000000000E+00  0.0000000000000E+00
395  3.9400000000000E+00  0.0000000000000E+00  0.0000000000000E+00
396  3.9500000000000E+00  0.0000000000000E+00  0.0000000000000E+00
397  3.9600000000000E+00  0.0000000000000E+00  0.0000000000000E+00
398  3.9700000000000E+00  0.0000000000000E+00  0.0000000000000E+00
399  3.9800000000000E+00  0.0000000000000E+00  0.0000000000000E+00
400  3.9900000000000E+00  0.0000000000000E+00  0.0000000000000E+00
401  4.0000000000000E+00  0.0000000000000E+00  0.0000000000000E+00
402  4.0100000000000E+00  0.0000000000000E+00  0.0000000000000E+00
403  4.0200000000000E+00  0.0000000000000E+00  0.0000000000000E+00
404  4.0300000000000E+00  0.0000000000000E+00  0.0000000000000E+00
405  4.0400000000000E+00  0.0000000000000E+00  0.0000000000000E+00
406  4.0500000000000E+00  0.0000000000000E+00  0.0000000000000E+00
407  4.0600000000000E+00  0.0000000000000E+00  0.0000000000000E+00
408  4.0700000000000E+00  0.0000000000000E+00  0.0000000000000E+00
409  4.0800000000000E+00  0.0000000000000E+00  0.0000000000000E+00
410  4.0900000000000E+00  0.0000000000000E+00  0.0000000000000E+00
411  4.1000000000000E+00  0.0000000000000E+00  0.0000000000000E+00
412  4.1100000000000E+00  0.0000000000000E+00  0.0000000000000E+00
413  4.1200000000000E+00  0.0000000000000E+00  0.0000000000000E+00
414  4.1300000000000E+00  0.0000000000000E+00  0.0000000000000E+00
415  4.1400000000000E+00  0.0000000000000E+00  0.0000000000000E+00
416  4.1500000000000E+00  0.0000000000000E+00  0.0000000000000E+00
417  4.1600000000000E+00  0.0000000000000E+00  0.0000000000000E+00
418  4.1700000000000E+00  0.0000000000000E+00  0.0000000000000E+00
419  4.1800000000000E+00  0.0000000000000E+00  0.0000000000000E+00
420  4.1900000000000E+00  0.0000000000000E+00  0.0000000000000E+00
421  4.2000000000000E+00  0.0000000000000E+00  0.0000000000000E+00
422  4.2100000000000E+00  0.0000000000000E+00  0.0000000000000E+00
423  4.2200000000000E+00  0.0000000000000E+00  0.0000000000000E+00
424  4.2300000000000E+00  0.0000000000000E+00  0.0000000000000E+00
425  4.2400000000000E+00  0.0000000000000E+00  0.0000000000000E+00
426  4.2500000000000E+00  0.0000000000000E+00  0.0000000000000E+00
427  4.2600000000000E+00  0.0000000000000E+00  0.0000000000000E+00
428  4.2700000000000E+00  0.0000000000000E+00  0.0000000000000E+00
429  4.2800000000000E+00  0.0000000000000E+00  0.0000000000000E+00
430  4.2900000000000E+00  0.0000000000000E+00  0.0000000000000E+00
431  4.3000000000000E+00  0.0000000000000E+00  0.0000000000000E+00
432  4.3100000000000E+00  0.0000000000000E+00  0.0000000000000E+00
433  4.3200000000000E+00  0.0000000000000E+00  0.0000000000000E+00
434  4.3300000000000E+00  0.0000000000000E+00  0.0000000000000E+00
435  4.3400000000000E+00  0.0000000000000E+00  0.0000000000000E+00
436  4.3500000000000E+00  0.0000000000000E+00  0.0000000000000E+00
437  4.3600000000000E+00  0.0000000000000E+00  0.0000000000000E+00
438  4.3700000000000E+00  0.0000000000000E+00  0.0000000000000E+00
439  4.3800000000000E+00  0.0000000000000E+00  0.0000000000000E+00
440  4.3900000000000E+00  0.0000000000000E+00  0.0000000000000E+00
441  4.4000000000000E+00  0.0000000000000E+00  0.0000000000000E+00
442  4.4100000000000E+00  0.0000000000000E+00  0.0000000000000E+00
443  4.4200000000000E+00  0.0000000000000E+00  0.0000000000000E+00