Zn    ONCVPSP-3.2.3.1  r_core=   1.35823   1.66358   1.85211
30.0000     20.0000      170504    zatom,zion,pspd
8      11   2     4   600     0    pspcod,pspxc,lmax,lloc,mmax,r2well
5.99000000  2.50000000  0.00000000    rchrg fchrg qchrg
2     2     2     0     0    nproj
1     1           extension_switch
0                         2.8276426034069E+00 -1.5327635192709E+00
1  0.0000000000000E+00  7.6763934098167E-09  6.1748609003764E-10
2  1.0000000000000E-02  8.8160051748520E-02  3.0643795205452E-02
3  2.0000000000000E-02  1.7610782687108E-01  6.1302156704797E-02
4  3.0000000000000E-02  2.6362900496834E-01  9.1989207657432E-02
5  4.0000000000000E-02  3.5050525758414E-01  1.2271819269066E-01
6  5.0000000000000E-02  4.3651244086280E-01  1.5350105781238E-01
7  6.0000000000000E-02  5.2141901856770E-01  1.8434805288418E-01
8  7.0000000000000E-02  6.0498478295804E-01  2.1526736342896E-01
9  8.0000000000000E-02  6.8695993334392E-01  2.4626477793009E-01
10  9.0000000000000E-02  7.6708456289496E-01  2.7734339603350E-01
11  1.0000000000000E-01  8.4508859368633E-01  3.0850338220824E-01
12  1.1000000000000E-01  9.2069218828113E-01  3.3974176847374E-01
13  1.2000000000000E-01  9.9360665365295E-01  3.7105230878415E-01
14  1.3000000000000E-01  1.0635358402455E+00  4.0242538659594E-01
15  1.4000000000000E-01  1.1301780257644E+00  4.3384797605723E-01
16  1.5000000000000E-01  1.1932282602163E+00  4.6530365617164E-01
17  1.6000000000000E-01  1.2523811360736E+00  4.9677267622922E-01
18  1.7000000000000E-01  1.3073339355568E+00  5.2823206978722E-01
19  1.8000000000000E-01  1.3577900961794E+00  5.5965581354569E-01
20  1.9000000000000E-01  1.4034629261703E+00  5.9101502661867E-01
21  2.0000000000000E-01  1.4440794934006E+00  6.2227820496966E-01
22  2.1000000000000E-01  1.4793846052159E+00  6.5341148517612E-01
23  2.2000000000000E-01  1.5091447922543E+00  6.8437893122531E-01
24  2.3000000000000E-01  1.5331522070516E+00  7.1514283773243E-01
25  2.4000000000000E-01  1.5512283480570E+00  7.4566404281805E-01
26  2.5000000000000E-01  1.5632275216257E+00  7.7590224388838E-01
27  2.6000000000000E-01  1.5690399586017E+00  8.0581630972670E-01
28  2.7000000000000E-01  1.5685945081628E+00  8.3536458262400E-01
29  2.8000000000000E-01  1.5618608395498E+00  8.6450516474156E-01
30  2.9000000000000E-01  1.5488510919743E+00  8.9319618349724E-01
31  3.0000000000000E-01  1.5296209241765E+00  9.2139603148444E-01
32  3.1000000000000E-01  1.5042699275323E+00  9.4906357725154E-01
33  3.2000000000000E-01  1.4729413800205E+00  9.7615834416837E-01
34  3.3000000000000E-01  1.4358213324320E+00  1.0026406555642E+00
35  3.4000000000000E-01  1.3931370326231E+00  1.0284717453146E+00
36  3.5000000000000E-01  1.3451547080474E+00  1.0536138340568E+00
37  3.6000000000000E-01  1.2921767409037E+00  1.0780301722043E+00
38  3.7000000000000E-01  1.2345382836889E+00  1.1016850518795E+00
39  3.8000000000000E-01  1.1726033754178E+00  1.1245437907738E+00
40  3.9000000000000E-01  1.1067606299777E+00  1.1465726917474E+00
41  4.0000000000000E-01  1.0374185777474E+00  1.1677389826808E+00
42  4.1000000000000E-01  9.6500074949950E-01  1.1880107416692E+00
43  4.2000000000000E-01  8.8994059751884E-01  1.2073568130881E+00
44  4.3000000000000E-01  8.1267635266509E-01  1.2257467203540E+00
45  4.4000000000000E-01  7.3364591767685E-01  1.2431505813354E+00
46  4.5000000000000E-01  6.5328189630819E-01  1.2595390323442E+00
47  4.6000000000000E-01  5.7200685490946E-01  1.2748831664496E+00
48  4.7000000000000E-01  4.9022890786583E-01  1.2891544915087E+00
49  4.8000000000000E-01  4.0833771099742E-01  1.3023249128090E+00
50  4.9000000000000E-01  3.2670093775880E-01  1.3143667445817E+00
51  5.0000000000000E-01  2.4566130206310E-01  1.3252527538768E+00
52  5.1000000000000E-01  1.6553417903356E-01  1.3349562394206E+00
53  5.2000000000000E-01  8.6605861244022E-02  1.3434511471117E+00
54  5.3000000000000E-01  9.1324733600386E-03  1.3507122227872E+00
55  5.4000000000000E-01 -6.6660447122237E-02  1.3567152018216E+00
56  5.5000000000000E-01 -1.4057771079606E-01  1.3614370340351E+00
57  5.6000000000000E-01 -2.1245360195327E-01  1.3648561413188E+00
58  5.7000000000000E-01 -2.8215040673034E-01  1.3669527043454E+00
59  5.8000000000000E-01 -3.4955639556010E-01  1.3677089737617E+00
60  5.9000000000000E-01 -4.1458332446734E-01  1.3671096003768E+00
61  6.0000000000000E-01 -4.7716353099325E-01  1.3651419780803E+00
62  6.1000000000000E-01 -5.3724671003937E-01  1.3617965925847E+00
63  6.2000000000000E-01 -5.9479646238685E-01  1.3570673685903E+00
64  6.3000000000000E-01 -6.4978671395386E-01  1.3509520076372E+00
65  6.4000000000000E-01 -7.0219810678866E-01  1.3434523087517E+00
66  6.5000000000000E-01 -7.5201446333344E-01  1.3345744640177E+00
67  6.6000000000000E-01 -7.9921942354778E-01  1.3243293214078E+00
68  6.7000000000000E-01 -8.4379335014495E-01  1.3127326075980E+00
69  6.8000000000000E-01 -8.8571059047241E-01  1.2998051040543E+00
70  6.9000000000000E-01 -9.2493717466829E-01  1.2855727704095E+00
71  7.0000000000000E-01 -9.6142901877984E-01  1.2700668100363E+00
72  7.1000000000000E-01 -9.9513068890985E-01  1.2533236737328E+00
73  7.2000000000000E-01 -1.0259747681884E+00  1.2353849985820E+00
74  7.3000000000000E-01 -1.0538818530973E+00  1.2162974802640E+00
75  7.4000000000000E-01 -1.0787611895112E+00  1.1961126783890E+00
76  7.5000000000000E-01 -1.1005119422300E+00  1.1748867557529E+00
77  7.6000000000000E-01 -1.1190250752054E+00  1.1526801537422E+00
78  7.7000000000000E-01 -1.1341858033598E+00  1.1295572074365E+00
79  7.8000000000000E-01 -1.1458765613943E+00  1.1055857052179E+00
80  7.9000000000000E-01 -1.1539804205985E+00  1.0808363988775E+00
81  8.0000000000000E-01 -1.1583848717481E+00  1.0553824712911E+00
82  8.1000000000000E-01 -1.1589858810649E+00  1.0292989696782E+00
83  8.2000000000000E-01 -1.1556921171829E+00  1.0026622132554E+00
84  8.3000000000000E-01 -1.1484292403641E+00  9.7554918471215E-01
85  8.4000000000000E-01 -1.1371441410178E+00  9.4803691537087E-01
86  8.5000000000000E-01 -1.1218090130402E+00  9.2020187412663E-01
87  8.6000000000000E-01 -1.1024251486636E+00  8.9211937028648E-01
88  8.7000000000000E-01 -1.0790263454124E+00  8.6386298024795E-01
89  8.8000000000000E-01 -1.0516818223383E+00  8.3550400756614E-01
90  8.9000000000000E-01 -1.0204985518373E+00  8.0711098536974E-01
91  9.0000000000000E-01 -9.8562292486651E-01  7.7874922930853E-01
92  9.1000000000000E-01 -9.4724168102616E-01  7.5048044826307E-01
93  9.2000000000000E-01 -9.0558205048839E-01  7.2236241894174E-01
94  9.3000000000000E-01 -8.6091107178365E-01  6.9444872925397E-01
95  9.4000000000000E-01 -8.1353406764311E-01  6.6678859400603E-01
96  9.5000000000000E-01 -7.6379228002751E-01  6.3942674504761E-01
97  9.6000000000000E-01 -7.1205968469998E-01  6.1240339653468E-01
98  9.7000000000000E-01 -6.5873902501946E-01  5.8575428447950E-01
99  9.8000000000000E-01 -6.0425712281961E-01  5.5951077832771E-01
100  9.9000000000000E-01 -5.4905954228321E-01  5.3370006085305E-01
101  1.0000000000000E+00 -4.9360469871566E-01  5.0834537134073E-01
102  1.0100000000000E+00 -4.3835751853932E-01  4.8346630580390E-01
103  1.0200000000000E+00 -3.8378276915144E-01  4.5907916688209E-01
104  1.0300000000000E+00 -3.3033818713583E-01  4.3519735513762E-01
105  1.0400000000000E+00 -2.7846754038063E-01  4.1183179270826E-01
106  1.0500000000000E+00 -2.2859376392932E-01  3.8899136973706E-01
107  1.0600000000000E+00 -1.8111231077150E-01  3.6668340360695E-01
108  1.0700000000000E+00 -1.3638485667415E-01  3.4491410091007E-01
109  1.0800000000000E+00 -9.4733493489884E-02  3.2368901213660E-01
110  1.0900000000000E+00 -5.6435536266755E-02  3.0301346942953E-01
111  1.1000000000000E+00 -2.1719061181936E-02  2.8289299812025E-01
112  1.1100000000000E+00  9.2407251578238E-03  2.6333369361433E-01
113  1.1200000000000E+00  3.6324198348442E-02  2.4434255597478E-01
114  1.1300000000000E+00  5.9469044173266E-02  2.2592777571629E-01
115  1.1400000000000E+00  7.8670951780002E-02  2.0809896530399E-01
116  1.1500000000000E+00  9.3983245723605E-02  1.9086733230848E-01
117  1.1600000000000E+00  1.0551545154198E-01  1.7424579149315E-01
118  1.1700000000000E+00  1.1343081352978E-01  1.5824901465154E-01
119  1.1800000000000E+00  1.1794279931641E-01  1.4289341803769E-01
120  1.1900000000000E+00  1.1931065527284E-01  1.2819708917084E-01
121  1.2000000000000E+00  1.1783409338334E-01  1.1417965592732E-01
122  1.2100000000000E+00  1.1384720896961E-01  1.0086210211615E-01
123  1.2200000000000E+00  1.0771174420723E-01  8.8266534797906E-02
124  1.2300000000000E+00  9.9809832614943E-02  7.6415910060184E-02
125  1.2400000000000E+00  9.0536366672828E-02  6.5333724536571E-02
126  1.2500000000000E+00  8.0291139079265E-02  5.5043680527076E-02
127  1.2600000000000E+00  6.9470920750393E-02  4.5569333652550E-02
128  1.2700000000000E+00  5.8461636115334E-02  3.6933732144992E-02
129  1.2800000000000E+00  4.7630776537663E-02  2.9159053906039E-02
130  1.2900000000000E+00  3.7320291823703E-02  2.2266260896447E-02
131  1.3000000000000E+00  2.7839768134904E-02  1.6274737445100E-02
132  1.3100000000000E+00  1.9461223887743E-02  1.1202068669511E-02
133  1.3200000000000E+00  1.2417458693023E-02  7.0663218660747E-03
134  1.3300000000000E+00  6.8524931401802E-03  3.8612585706629E-03
135  1.3400000000000E+00  2.9419523007058E-03  1.6270700163020E-03
136  1.3500000000000E+00  8.4273938393958E-04  4.2138817503544E-04
137  1.3600000000000E+00  9.2775057453158E-05 -2.3048079759754E-08
138  1.3700000000000E+00 -2.1221669167758E-05 -2.7635705122229E-05
139  1.3800000000000E+00  1.4848635227179E-05  1.4454259802624E-05
140  1.3900000000000E+00  3.0475050566907E-06  2.6926069862128E-06
141  1.4000000000000E+00 -2.2552403822053E-06 -2.6419646758585E-06
142  1.4100000000000E+00 -2.1681988817358E-07 -4.7163183279656E-08
143  1.4200000000000E+00 -3.3403667652514E-07 -7.2660460854356E-08
144  1.4300000000000E+00  0.0000000000000E+00  0.0000000000000E+00
145  1.4400000000000E+00  0.0000000000000E+00  0.0000000000000E+00
146  1.4500000000000E+00  0.0000000000000E+00  0.0000000000000E+00
147  1.4600000000000E+00  0.0000000000000E+00  0.0000000000000E+00
148  1.4700000000000E+00  0.0000000000000E+00  0.0000000000000E+00
149  1.4800000000000E+00  0.0000000000000E+00  0.0000000000000E+00
150  1.4900000000000E+00  0.0000000000000E+00  0.0000000000000E+00
151  1.5000000000000E+00  0.0000000000000E+00  0.0000000000000E+00
152  1.5100000000000E+00  0.0000000000000E+00  0.0000000000000E+00
153  1.5200000000000E+00  0.0000000000000E+00  0.0000000000000E+00
154  1.5300000000000E+00  0.0000000000000E+00  0.0000000000000E+00
155  1.5400000000000E+00  0.0000000000000E+00  0.0000000000000E+00
156  1.5500000000000E+00  0.0000000000000E+00  0.0000000000000E+00
157  1.5600000000000E+00  0.0000000000000E+00  0.0000000000000E+00
158  1.5700000000000E+00  0.0000000000000E+00  0.0000000000000E+00
159  1.5800000000000E+00  0.0000000000000E+00  0.0000000000000E+00
160  1.5900000000000E+00  0.0000000000000E+00  0.0000000000000E+00
161  1.6000000000000E+00  0.0000000000000E+00  0.0000000000000E+00
162  1.6100000000000E+00  0.0000000000000E+00  0.0000000000000E+00
163  1.6200000000000E+00  0.0000000000000E+00  0.0000000000000E+00
164  1.6300000000000E+00  0.0000000000000E+00  0.0000000000000E+00
165  1.6400000000000E+00  0.0000000000000E+00  0.0000000000000E+00
166  1.6500000000000E+00  0.0000000000000E+00  0.0000000000000E+00
167  1.6600000000000E+00  0.0000000000000E+00  0.0000000000000E+00
168  1.6700000000000E+00  0.0000000000000E+00  0.0000000000000E+00
169  1.6800000000000E+00  0.0000000000000E+00  0.0000000000000E+00
170  1.6900000000000E+00  0.0000000000000E+00  0.0000000000000E+00
171  1.7000000000000E+00  0.0000000000000E+00  0.0000000000000E+00
172  1.7100000000000E+00  0.0000000000000E+00  0.0000000000000E+00
173  1.7200000000000E+00  0.0000000000000E+00  0.0000000000000E+00
174  1.7300000000000E+00  0.0000000000000E+00  0.0000000000000E+00
175  1.7400000000000E+00  0.0000000000000E+00  0.0000000000000E+00
176  1.7500000000000E+00  0.0000000000000E+00  0.0000000000000E+00
177  1.7600000000000E+00  0.0000000000000E+00  0.0000000000000E+00
178  1.7700000000000E+00  0.0000000000000E+00  0.0000000000000E+00
179  1.7800000000000E+00  0.0000000000000E+00  0.0000000000000E+00
180  1.7900000000000E+00  0.0000000000000E+00  0.0000000000000E+00
181  1.8000000000000E+00  0.0000000000000E+00  0.0000000000000E+00
182  1.8100000000000E+00  0.0000000000000E+00  0.0000000000000E+00
183  1.8200000000000E+00  0.0000000000000E+00  0.0000000000000E+00
184  1.8300000000000E+00  0.0000000000000E+00  0.0000000000000E+00
185  1.8400000000000E+00  0.0000000000000E+00  0.0000000000000E+00
186  1.8500000000000E+00  0.0000000000000E+00  0.0000000000000E+00
187  1.8600000000000E+00  0.0000000000000E+00  0.0000000000000E+00
188  1.8700000000000E+00  0.0000000000000E+00  0.0000000000000E+00
189  1.8800000000000E+00  0.0000000000000E+00  0.0000000000000E+00
190  1.8900000000000E+00  0.0000000000000E+00  0.0000000000000E+00
191  1.9000000000000E+00  0.0000000000000E+00  0.0000000000000E+00
192  1.9100000000000E+00  0.0000000000000E+00  0.0000000000000E+00
193  1.9200000000000E+00  0.0000000000000E+00  0.0000000000000E+00
194  1.9300000000000E+00  0.0000000000000E+00  0.0000000000000E+00
195  1.9400000000000E+00  0.0000000000000E+00  0.0000000000000E+00
196  1.9500000000000E+00  0.0000000000000E+00  0.0000000000000E+00
197  1.9600000000000E+00  0.0000000000000E+00  0.0000000000000E+00
198  1.9700000000000E+00  0.0000000000000E+00  0.0000000000000E+00
199  1.9800000000000E+00  0.0000000000000E+00  0.0000000000000E+00
200  1.9900000000000E+00  0.0000000000000E+00  0.0000000000000E+00
201  2.0000000000000E+00  0.0000000000000E+00  0.0000000000000E+00
202  2.0100000000000E+00  0.0000000000000E+00  0.0000000000000E+00
203  2.0200000000000E+00  0.0000000000000E+00  0.0000000000000E+00
204  2.0300000000000E+00  0.0000000000000E+00  0.0000000000000E+00
205  2.0400000000000E+00  0.0000000000000E+00  0.0000000000000E+00
206  2.0500000000000E+00  0.0000000000000E+00  0.0000000000000E+00
207  2.0600000000000E+00  0.0000000000000E+00  0.0000000000000E+00
208  2.0700000000000E+00  0.0000000000000E+00  0.0000000000000E+00
209  2.0800000000000E+00  0.0000000000000E+00  0.0000000000000E+00
210  2.0900000000000E+00  0.0000000000000E+00  0.0000000000000E+00
211  2.1000000000000E+00  0.0000000000000E+00  0.0000000000000E+00
212  2.1100000000000E+00  0.0000000000000E+00  0.0000000000000E+00
213  2.1200000000000E+00  0.0000000000000E+00  0.0000000000000E+00
214  2.1300000000000E+00  0.0000000000000E+00  0.0000000000000E+00
215  2.1400000000000E+00  0.0000000000000E+00  0.0000000000000E+00
216  2.1500000000000E+00  0.0000000000000E+00  0.0000000000000E+00
217  2.1600000000000E+00  0.0000000000000E+00  0.0000000000000E+00
218  2.1700000000000E+00  0.0000000000000E+00  0.0000000000000E+00
219  2.1800000000000E+00  0.0000000000000E+00  0.0000000000000E+00
220  2.1900000000000E+00  0.0000000000000E+00  0.0000000000000E+00
221  2.2000000000000E+00  0.0000000000000E+00  0.0000000000000E+00
222  2.2100000000000E+00  0.0000000000000E+00  0.0000000000000E+00
223  2.2200000000000E+00  0.0000000000000E+00  0.0000000000000E+00
224  2.2300000000000E+00  0.0000000000000E+00  0.0000000000000E+00
225  2.2400000000000E+00  0.0000000000000E+00  0.0000000000000E+00
226  2.2500000000000E+00  0.0000000000000E+00  0.0000000000000E+00
227  2.2600000000000E+00  0.0000000000000E+00  0.0000000000000E+00
228  2.2700000000000E+00  0.0000000000000E+00  0.0000000000000E+00
229  2.2800000000000E+00  0.0000000000000E+00  0.0000000000000E+00
230  2.2900000000000E+00  0.0000000000000E+00  0.0000000000000E+00
231  2.3000000000000E+00  0.0000000000000E+00  0.0000000000000E+00
232  2.3100000000000E+00  0.0000000000000E+00  0.0000000000000E+00
233  2.3200000000000E+00  0.0000000000000E+00  0.0000000000000E+00
234  2.3300000000000E+00  0.0000000000000E+00  0.0000000000000E+00
235  2.3400000000000E+00  0.0000000000000E+00  0.0000000000000E+00
236  2.3500000000000E+00  0.0000000000000E+00  0.0000000000000E+00
237  2.3600000000000E+00  0.0000000000000E+00  0.0000000000000E+00
238  2.3700000000000E+00  0.0000000000000E+00  0.0000000000000E+00
239  2.3800000000000E+00  0.0000000000000E+00  0.0000000000000E+00
240  2.3900000000000E+00  0.0000000000000E+00  0.0000000000000E+00
241  2.4000000000000E+00  0.0000000000000E+00  0.0000000000000E+00
242  2.4100000000000E+00  0.0000000000000E+00  0.0000000000000E+00
243  2.4200000000000E+00  0.0000000000000E+00  0.0000000000000E+00
244  2.4300000000000E+00  0.0000000000000E+00  0.0000000000000E+00
245  2.4400000000000E+00  0.0000000000000E+00  0.0000000000000E+00
246  2.4500000000000E+00  0.0000000000000E+00  0.0000000000000E+00
247  2.4600000000000E+00  0.0000000000000E+00  0.0000000000000E+00
248  2.4700000000000E+00  0.0000000000000E+00  0.0000000000000E+00
249  2.4800000000000E+00  0.0000000000000E+00  0.0000000000000E+00
250  2.4900000000000E+00  0.0000000000000E+00  0.0000000000000E+00
251  2.5000000000000E+00  0.0000000000000E+00  0.0000000000000E+00
252  2.5100000000000E+00  0.0000000000000E+00  0.0000000000000E+00
253  2.5200000000000E+00  0.0000000000000E+00  0.0000000000000E+00
254  2.5300000000000E+00  0.0000000000000E+00  0.0000000000000E+00
255  2.5400000000000E+00  0.0000000000000E+00  0.0000000000000E+00
256  2.5500000000000E+00  0.0000000000000E+00  0.0000000000000E+00
257  2.5600000000000E+00  0.0000000000000E+00  0.0000000000000E+00
258  2.5700000000000E+00  0.0000000000000E+00  0.0000000000000E+00
259  2.5800000000000E+00  0.0000000000000E+00  0.0000000000000E+00
260  2.5900000000000E+00  0.0000000000000E+00  0.0000000000000E+00
261  2.6000000000000E+00  0.0000000000000E+00  0.0000000000000E+00
262  2.6100000000000E+00  0.0000000000000E+00  0.0000000000000E+00
263  2.6200000000000E+00  0.0000000000000E+00  0.0000000000000E+00
264  2.6300000000000E+00  0.0000000000000E+00  0.0000000000000E+00
265  2.6400000000000E+00  0.0000000000000E+00  0.0000000000000E+00
266  2.6500000000000E+00  0.0000000000000E+00  0.0000000000000E+00
267  2.6600000000000E+00  0.0000000000000E+00  0.0000000000000E+00
268  2.6700000000000E+00  0.0000000000000E+00  0.0000000000000E+00
269  2.6800000000000E+00  0.0000000000000E+00  0.0000000000000E+00
270  2.6900000000000E+00  0.0000000000000E+00  0.0000000000000E+00
271  2.7000000000000E+00  0.0000000000000E+00  0.0000000000000E+00
272  2.7100000000000E+00  0.0000000000000E+00  0.0000000000000E+00
273  2.7200000000000E+00  0.0000000000000E+00  0.0000000000000E+00
274  2.7300000000000E+00  0.0000000000000E+00  0.0000000000000E+00
275  2.7400000000000E+00  0.0000000000000E+00  0.0000000000000E+00
276  2.7500000000000E+00  0.0000000000000E+00  0.0000000000000E+00
277  2.7600000000000E+00  0.0000000000000E+00  0.0000000000000E+00
278  2.7700000000000E+00  0.0000000000000E+00  0.0000000000000E+00
279  2.7800000000000E+00  0.0000000000000E+00  0.0000000000000E+00
280  2.7900000000000E+00  0.0000000000000E+00  0.0000000000000E+00
281  2.8000000000000E+00  0.0000000000000E+00  0.0000000000000E+00
282  2.8100000000000E+00  0.0000000000000E+00  0.0000000000000E+00
283  2.8200000000000E+00  0.0000000000000E+00  0.0000000000000E+00
284  2.8300000000000E+00  0.0000000000000E+00  0.0000000000000E+00
285  2.8400000000000E+00  0.0000000000000E+00  0.0000000000000E+00
286  2.8500000000000E+00  0.0000000000000E+00  0.0000000000000E+00
287  2.8600000000000E+00  0.0000000000000E+00  0.0000000000000E+00
288  2.8700000000000E+00  0.0000000000000E+00  0.0000000000000E+00
289  2.8800000000000E+00  0.0000000000000E+00  0.0000000000000E+00
290  2.8900000000000E+00  0.0000000000000E+00  0.0000000000000E+00
291  2.9000000000000E+00  0.0000000000000E+00  0.0000000000000E+00
292  2.9100000000000E+00  0.0000000000000E+00  0.0000000000000E+00
293  2.9200000000000E+00  0.0000000000000E+00  0.0000000000000E+00
294  2.9300000000000E+00  0.0000000000000E+00  0.0000000000000E+00
295  2.9400000000000E+00  0.0000000000000E+00  0.0000000000000E+00
296  2.9500000000000E+00  0.0000000000000E+00  0.0000000000000E+00
297  2.9600000000000E+00  0.0000000000000E+00  0.0000000000000E+00
298  2.9700000000000E+00  0.0000000000000E+00  0.0000000000000E+00
299  2.9800000000000E+00  0.0000000000000E+00  0.0000000000000E+00
300  2.9900000000000E+00  0.0000000000000E+00  0.0000000000000E+00
301  3.0000000000000E+00  0.0000000000000E+00  0.0000000000000E+00
302  3.0100000000000E+00  0.0000000000000E+00  0.0000000000000E+00
303  3.0200000000000E+00  0.0000000000000E+00  0.0000000000000E+00
304  3.0300000000000E+00  0.0000000000000E+00  0.0000000000000E+00
305  3.0400000000000E+00  0.0000000000000E+00  0.0000000000000E+00
306  3.0500000000000E+00  0.0000000000000E+00  0.0000000000000E+00
307  3.0600000000000E+00  0.0000000000000E+00  0.0000000000000E+00
308  3.0700000000000E+00  0.0000000000000E+00  0.0000000000000E+00
309  3.0800000000000E+00  0.0000000000000E+00  0.0000000000000E+00
310  3.0900000000000E+00  0.0000000000000E+00  0.0000000000000E+00
311  3.1000000000000E+00  0.0000000000000E+00  0.0000000000000E+00
312  3.1100000000000E+00  0.0000000000000E+00  0.0000000000000E+00
313  3.1200000000000E+00  0.0000000000000E+00  0.0000000000000E+00
314  3.1300000000000E+00  0.0000000000000E+00  0.0000000000000E+00
315  3.1400000000000E+00  0.0000000000000E+00  0.0000000000000E+00
316  3.1500000000000E+00  0.0000000000000E+00  0.0000000000000E+00
317  3.1600000000000E+00  0.0000000000000E+00  0.0000000000000E+00
318  3.1700000000000E+00  0.0000000000000E+00  0.0000000000000E+00
319  3.1800000000000E+00  0.0000000000000E+00  0.0000000000000E+00
320  3.1900000000000E+00  0.0000000000000E+00  0.0000000000000E+00
321  3.2000000000000E+00  0.0000000000000E+00  0.0000000000000E+00
322  3.2100000000000E+00  0.0000000000000E+00  0.0000000000000E+00
323  3.2200000000000E+00  0.0000000000000E+00  0.0000000000000E+00
324  3.2300000000000E+00  0.0000000000000E+00  0.0000000000000E+00
325  3.2400000000000E+00  0.0000000000000E+00  0.0000000000000E+00
326  3.2500000000000E+00  0.0000000000000E+00  0.0000000000000E+00
327  3.2600000000000E+00  0.0000000000000E+00  0.0000000000000E+00
328  3.2700000000000E+00  0.0000000000000E+00  0.0000000000000E+00
329  3.2800000000000E+00  0.0000000000000E+00  0.0000000000000E+00
330  3.2900000000000E+00  0.0000000000000E+00  0.0000000000000E+00
331  3.3000000000000E+00  0.0000000000000E+00  0.0000000000000E+00
332  3.3100000000000E+00  0.0000000000000E+00  0.0000000000000E+00
333  3.3200000000000E+00  0.0000000000000E+00  0.0000000000000E+00
334  3.3300000000000E+00  0.0000000000000E+00  0.0000000000000E+00
335  3.3400000000000E+00  0.0000000000000E+00  0.0000000000000E+00
336  3.3500000000000E+00  0.0000000000000E+00  0.0000000000000E+00
337  3.3600000000000E+00  0.0000000000000E+00  0.0000000000000E+00
338  3.3700000000000E+00  0.0000000000000E+00  0.0000000000000E+00
339  3.3800000000000E+00  0.0000000000000E+00  0.0000000000000E+00
340  3.3900000000000E+00  0.0000000000000E+00  0.0000000000000E+00
341  3.4000000000000E+00  0.0000000000000E+00  0.0000000000000E+00
342  3.4100000000000E+00  0.0000000000000E+00  0.0000000000000E+00
343  3.4200000000000E+00  0.0000000000000E+00  0.0000000000000E+00
344  3.4300000000000E+00  0.0000000000000E+00  0.0000000000000E+00
345  3.4400000000000E+00  0.0000000000000E+00  0.0000000000000E+00
346  3.4500000000000E+00  0.0000000000000E+00  0.0000000000000E+00
347  3.4600000000000E+00  0.0000000000000E+00  0.0000000000000E+00
348  3.4700000000000E+00  0.0000000000000E+00  0.0000000000000E+00
349  3.4800000000000E+00  0.0000000000000E+00  0.0000000000000E+00
350  3.4900000000000E+00  0.0000000000000E+00  0.0000000000000E+00
351  3.5000000000000E+00  0.0000000000000E+00  0.0000000000000E+00
352  3.5100000000000E+00  0.0000000000000E+00  0.0000000000000E+00
353  3.5200000000000E+00  0.0000000000000E+00  0.0000000000000E+00
354  3.5300000000000E+00  0.0000000000000E+00  0.0000000000000E+00
355  3.5400000000000E+00  0.0000000000000E+00  0.0000000000000E+00
356  3.5500000000000E+00  0.0000000000000E+00  0.0000000000000E+00
357  3.5600000000000E+00  0.0000000000000E+00  0.0000000000000E+00
358  3.5700000000000E+00  0.0000000000000E+00  0.0000000000000E+00
359  3.5800000000000E+00  0.0000000000000E+00  0.0000000000000E+00
360  3.5900000000000E+00  0.0000000000000E+00  0.0000000000000E+00
361  3.6000000000000E+00  0.0000000000000E+00  0.0000000000000E+00
362  3.6100000000000E+00  0.0000000000000E+00  0.0000000000000E+00
363  3.6200000000000E+00  0.0000000000000E+00  0.0000000000000E+00
364  3.6300000000000E+00  0.0000000000000E+00  0.0000000000000E+00
365  3.6400000000000E+00  0.0000000000000E+00  0.0000000000000E+00
366  3.6500000000000E+00  0.0000000000000E+00  0.0000000000000E+00
367  3.6600000000000E+00  0.0000000000000E+00  0.0000000000000E+00
368  3.6700000000000E+00  0.0000000000000E+00  0.0000000000000E+00
369  3.6800000000000E+00  0.0000000000000E+00  0.0000000000000E+00
370  3.6900000000000E+00  0.0000000000000E+00  0.0000000000000E+00
371  3.7000000000000E+00  0.0000000000000E+00  0.0000000000000E+00
372  3.7100000000000E+00  0.0000000000000E+00  0.0000000000000E+00
373  3.7200000000000E+00  0.0000000000000E+00  0.0000000000000E+00
374  3.7300000000000E+00  0.0000000000000E+00  0.0000000000000E+00
375  3.7400000000000E+00  0.0000000000000E+00  0.0000000000000E+00
376  3.7500000000000E+00  0.0000000000000E+00  0.0000000000000E+00
377  3.7600000000000E+00  0.0000000000000E+00  0.0000000000000E+00
378  3.7700000000000E+00  0.0000000000000E+00  0.0000000000000E+00
379  3.7800000000000E+00  0.0000000000000E+00  0.0000000000000E+00
380  3.7900000000000E+00  0.0000000000000E+00  0.0000000000000E+00
381  3.8000000000000E+00  0.0000000000000E+00  0.0000000000000E+00
382  3.8100000000000E+00  0.0000000000000E+00  0.0000000000000E+00
383  3.8200000000000E+00  0.0000000000000E+00  0.0000000000000E+00
384  3.8300000000000E+00  0.0000000000000E+00  0.0000000000000E+00
385  3.8400000000000E+00  0.0000000000000E+00  0.0000000000000E+00
386  3.8500000000000E+00  0.0000000000000E+00  0.0000000000000E+00
387  3.8600000000000E+00  0.0000000000000E+00  0.0000000000000E+00
388  3.8700000000000E+00  0.0000000000000E+00  0.0000000000000E+00
389  3.8800000000000E+00  0.0000000000000E+00  0.0000000000000E+00
390  3.8900000000000E+00  0.0000000000000E+00  0.0000000000000E+00
391  3.9000000000000E+00  0.0000000000000E+00  0.0000000000000E+00
392  3.9100000000000E+00  0.0000000000000E+00  0.0000000000000E+00
393  3.9200000000000E+00  0.0000000000000E+00  0.0000000000000E+00
394  3.9300000000000E+00  0.0000000000000E+00  0.0000000000000E+00
395  3.9400000000000E+00  0.0000000000000E+00  0.0000000000000E+00
396  3.9500000000000E+00  0.0000000000000E+00  0.0000000000000E+00
397  3.9600000000000E+00  0.0000000000000E+00  0.0000000000000E+00
398  3.9700000000000E+00  0.0000000000000E+00  0.0000000000000E+00
399  3.9800000000000E+00  0.0000000000000E+00  0.0000000000000E+00
400  3.9900000000000E+00  0.0000000000000E+00  0.0000000000000E+00
401  4.0000000000000E+00  0.0000000000000E+00  0.0000000000000E+00
402  4.0100000000000E+00  0.0000000000000E+00  0.0000000000000E+00
403  4.0200000000000E+00  0.0000000000000E+00  0.0000000000000E+00
404  4.0300000000000E+00  0.0000000000000E+00  0.0000000000000E+00
405  4.0400000000000E+00  0.0000000000000E+00  0.0000000000000E+00
406  4.0500000000000E+00  0.0000000000000E+00  0.0000000000000E+00
407  4.0600000000000E+00  0.0000000000000E+00  0.0000000000000E+00
408  4.0700000000000E+00  0.0000000000000E+00  0.0000000000000E+00
409  4.0800000000000E+00  0.0000000000000E+00  0.0000000000000E+00
410  4.0900000000000E+00  0.0000000000000E+00  0.0000000000000E+00
411  4.1000000000000E+00  0.0000000000000E+00  0.0000000000000E+00
412  4.1100000000000E+00  0.0000000000000E+00  0.0000000000000E+00
413  4.1200000000000E+00  0.0000000000000E+00  0.0000000000000E+00
414  4.1300000000000E+00  0.0000000000000E+00  0.0000000000000E+00
415  4.1400000000000E+00  0.0000000000000E+00  0.0000000000000E+00
416  4.1500000000000E+00  0.0000000000000E+00  0.0000000000000E+00
417  4.1600000000000E+00  0.0000000000000E+00  0.0000000000000E+00
418  4.1700000000000E+00  0.0000000000000E+00  0.0000000000000E+00
419  4.1800000000000E+00  0.0000000000000E+00  0.0000000000000E+00
420  4.1900000000000E+00  0.0000000000000E+00  0.0000000000000E+00
421  4.2000000000000E+00  0.0000000000000E+00  0.0000000000000E+00
422  4.2100000000000E+00  0.0000000000000E+00  0.0000000000000E+00
423  4.2200000000000E+00  0.0000000000000E+00  0.0000000000000E+00
424  4.2300000000000E+00  0.0000000000000E+00  0.0000000000000E+00
425  4.2400000000000E+00  0.0000000000000E+00  0.0000000000000E+00
426  4.2500000000000E+00  0.0000000000000E+00  0.0000000000000E+00
427  4.2600000000000E+00  0.0000000000000E+00  0.0000000000000E+00
428  4.2700000000000E+00  0.0000000000000E+00  0.0000000000000E+00
429  4.2800000000000E+00  0.0000000000000E+00  0.0000000000000E+00
430  4.2900000000000E+00  0.0000000000000E+00  0.0000000000000E+00
431  4.3000000000000E+00  0.0000000000000E+00  0.0000000000000E+00
432  4.3100000000000E+00  0.0000000000000E+00  0.0000000000000E+00
433  4.3200000000000E+00  0.0000000000000E+00  0.0000000000000E+00
434  4.3300000000000E+00  0.0000000000000E+00  0.0000000000000E+00
435  4.3400000000000E+00  0.0000000000000E+00  0.0000000000000E+00
436  4.3500000000000E+00  0.0000000000000E+00  0.0000000000000E+00
437  4.3600000000000E+00  0.0000000000000E+00  0.0000000000000E+00
438  4.3700000000000E+00  0.0000000000000E+00  0.0000000000000E+00
439  4.3800000000000E+00  0.0000000000000E+00  0.0000000000000E+00
440  4.3900000000000E+00  0.0000000000000E+00  0.0000000000000E+00
441  4.4000000000000E+00  0.0000000000000E+00  0.0000000000000E+00
442  4.4100000000000E+00  0.0000000000000E+00  0.0000000000000E+00
443  4.4200000000000E+00  0.0000000000000E+00  0.0000000000000E+00