As    ONCVPSP-3.2.3.1  r_core=   1.20565   1.40789   1.60529
33.0000     23.0000      170504    zatom,zion,pspd
8      11   2     4   600     0    pspcod,pspxc,lmax,lloc,mmax,r2well
5.99000000  2.70000000  0.00000000    rchrg fchrg qchrg
2     2     2     0     0    nproj
1     1           extension_switch
0                         4.0342762137460E+00 -2.3538247238305E+00
1  0.0000000000000E+00  2.1496392443865E-09  5.6461335606883E-11
2  1.0000000000000E-02  1.0069428242248E-01  4.0944379484012E-02
3  2.0000000000000E-02  2.0102831008536E-01  8.1876008718701E-02
4  3.0000000000000E-02  3.0064176466425E-01  1.2278191261939E-01
5  4.0000000000000E-02  3.9917422936566E-01  1.6364866848800E-01
6  5.0000000000000E-02  4.9626521078518E-01  2.0446218733515E-01
7  6.0000000000000E-02  5.9155424452200E-01  2.4520750131706E-01
8  7.0000000000000E-02  6.8468110990171E-01  2.8586855925882E-01
9  8.0000000000000E-02  7.7528617701005E-01  3.2642803217949E-01
10  9.0000000000000E-02  8.6301090661501E-01  3.6686713066440E-01
11  1.0000000000000E-01  9.4749852049420E-01  4.0716543584671E-01
12  1.1000000000000E-01  1.0283948562356E+00  4.4730074566463E-01
13  1.2000000000000E-01  1.1053494167955E+00  4.8724893795258E-01
14  1.3000000000000E-01  1.1780166210376E+00  5.2698385180485E-01
15  1.4000000000000E-01  1.2460572571994E+00  5.6647718852012E-01
16  1.5000000000000E-01  1.3091401368168E+00  6.0569843329434E-01
17  1.6000000000000E-01  1.3669439421330E+00  6.4461479867961E-01
18  1.7000000000000E-01  1.4191592555208E+00  6.8319119066837E-01
19  1.8000000000000E-01  1.4654907550091E+00  7.2139019809624E-01
20  1.9000000000000E-01  1.5056595557105E+00  7.5917210588462E-01
21  2.0000000000000E-01  1.5394056728640E+00  7.9649493246630E-01
22  2.1000000000000E-01  1.5664905784035E+00  8.3331449155524E-01
23  2.2000000000000E-01  1.5866998195063E+00  8.6958447823656E-01
24  2.3000000000000E-01  1.5998456645317E+00  9.0525657916556E-01
25  2.4000000000000E-01  1.6057697391726E+00  9.4028060647679E-01
26  2.5000000000000E-01  1.6043456135807E+00  9.7460465481701E-01
27  2.6000000000000E-01  1.5954812997177E+00  1.0081752807306E+00
28  2.7000000000000E-01  1.5791216172732E+00  1.0409377034438E+00
29  2.8000000000000E-01  1.5552503862069E+00  1.0728360259167E+00
30  2.9000000000000E-01  1.5238924043270E+00  1.1038134748609E+00
31  3.0000000000000E-01  1.4851151693314E+00  1.1338126582546E+00
32  3.1000000000000E-01  1.4390303064046E+00  1.1627758387340E+00
33  3.2000000000000E-01  1.3857946647802E+00  1.1906452210910E+00
34  3.3000000000000E-01  1.3256110496186E+00  1.2173632519739E+00
35  3.4000000000000E-01  1.2587285591012E+00  1.2428729297656E+00
36  3.5000000000000E-01  1.1854425007467E+00  1.2671181225023E+00
37  3.6000000000000E-01  1.1060938655883E+00  1.2900438916052E+00
38  3.7000000000000E-01  1.0210683439421E+00  1.3115968191132E+00
39  3.8000000000000E-01  9.3079487199657E-01  1.3317253360473E+00
40  3.9000000000000E-01  8.3574370428021E-01  1.3503800494878E+00
41  4.0000000000000E-01  7.3642401315497E-01  1.3675140659200E+00
42  4.1000000000000E-01  6.3338102274991E-01  1.3830833083955E+00
43  4.2000000000000E-01  5.2719269110673E-01  1.3970468250628E+00
44  4.3000000000000E-01  4.1846596067385E-01  1.4093670866554E+00
45  4.4000000000000E-01  3.0783260356342E-01  1.4200102705686E+00
46  4.5000000000000E-01  1.9594469408728E-01  1.4289465292287E+00
47  4.6000000000000E-01  8.3469746924482E-02  1.4361502405428E+00
48  4.7000000000000E-01 -2.8914435247060E-02  1.4416002383248E+00
49  4.8000000000000E-01 -1.4052515578007E-01  1.4452800207179E+00
50  4.9000000000000E-01 -2.5068040635385E-01  1.4471779347760E+00
51  5.0000000000000E-01 -3.5870458021742E-01  1.4472873355268E+00
52  5.1000000000000E-01 -4.6393425579932E-01  1.4456067180128E+00
53  5.2000000000000E-01 -5.6572398756810E-01  1.4421398210018E+00
54  5.3000000000000E-01 -6.6345203926745E-01  1.4368957012547E+00
55  5.4000000000000E-01 -7.5652599370712E-01  1.4298887774633E+00
56  5.5000000000000E-01 -8.4438817319838E-01  1.4211388431902E+00
57  5.6000000000000E-01 -9.2652080549548E-01  1.4106710483826E+00
58  5.7000000000000E-01 -1.0024508717585E+00  1.3985158492717E+00
59  5.8000000000000E-01 -1.0717545755737E+00  1.3847089267192E+00
60  5.9000000000000E-01 -1.1340613754497E+00  1.3692910733177E+00
61  6.0000000000000E-01 -1.1890575274087E+00  1.3523080498087E+00
62  6.1000000000000E-01 -1.2364890892964E+00  1.3338104116262E+00
63  6.2000000000000E-01 -1.2761643441383E+00  1.3138533066206E+00
64  6.3000000000000E-01 -1.3079556062971E+00  1.2924962452599E+00
65  6.4000000000000E-01 -1.3318003811431E+00  1.2698028448318E+00
66  6.5000000000000E-01 -1.3477018564729E+00  1.2458405493947E+00
67  6.6000000000000E-01 -1.3557287118360E+00  1.2206803274337E+00
68  6.7000000000000E-01 -1.3560142401397E+00  1.1943963493677E+00
69  6.8000000000000E-01 -1.3487547843799E+00  1.1670656472357E+00
70  6.9000000000000E-01 -1.3342075008823E+00  1.1387677590432E+00
71  7.0000000000000E-01 -1.3126874689862E+00  1.1095843603920E+00
72  7.1000000000000E-01 -1.2845641754703E+00  1.0795988861285E+00
73  7.2000000000000E-01 -1.2502574102287E+00  1.0488961448403E+00
74  7.3000000000000E-01 -1.2102326174619E+00  1.0175619290991E+00
75  7.4000000000000E-01 -1.1649957539802E+00  9.8568262438693E-01
76  7.5000000000000E-01 -1.1150877129595E+00  9.5334481966261E-01
77  7.6000000000000E-01 -1.0610783775380E+00  9.2063492251127E-01
78  7.7000000000000E-01 -1.0035603739341E+00  8.8763878178346E-01
79  7.8000000000000E-01 -9.4314259819678E-01  8.5444132056434E-01
80  7.9000000000000E-01 -8.8044359419245E-01  8.2112618222171E-01
81  8.0000000000000E-01 -8.1608486294536E-01  7.8777539216363E-01
82  8.1000000000000E-01 -7.5068418492708E-01  7.5446903779264E-01
83  8.2000000000000E-01 -6.8484903729374E-01  7.2128496897565E-01
84  8.3000000000000E-01 -6.1917018739008E-01  6.8829852115810E-01
85  8.4000000000000E-01 -5.5421554206650E-01  6.5558226303862E-01
86  8.5000000000000E-01 -4.9052432950317E-01  6.2320577048912E-01
87  8.6000000000000E-01 -4.2860168633040E-01  5.9123542815644E-01
88  8.7000000000000E-01 -3.6891371791928E-01  5.5973425991783E-01
89  8.8000000000000E-01 -3.1188309384734E-01  5.2876178908632E-01
90  8.9000000000000E-01 -2.5788523379201E-01  4.9837392897566E-01
91  9.0000000000000E-01 -2.0724513155400E-01  4.6862290414145E-01
92  9.1000000000000E-01 -1.6023485665988E-01  4.3955720231759E-01
93  9.2000000000000E-01 -1.1707176414477E-01  4.1122155676845E-01
94  9.3000000000000E-01 -7.7917433789972E-02  3.8365695848039E-01
95  9.4000000000000E-01 -4.2877350410455E-02  3.5690069732454E-01
96  9.5000000000000E-01 -1.2001326884326E-02  3.3098643103819E-01
97  9.6000000000000E-01  1.4715338354334E-02  3.0594428059989E-01
98  9.7000000000000E-01  3.7329987685829E-02  2.8180095031095E-01
99  9.8000000000000E-01  5.5950042362816E-02  2.5857987065914E-01
100  9.9000000000000E-01  7.0729789799430E-02  2.3630136180913E-01
101  1.0000000000000E+00  8.1866566428520E-02  2.1498281536618E-01
102  1.0100000000000E+00  8.9596390878353E-02  1.9463889187963E-01
103  1.0200000000000E+00  9.4189109898674E-02  1.7528173139936E-01
104  1.0300000000000E+00  9.5943126317004E-02  1.5692117427254E-01
105  1.0400000000000E+00  9.5179784297197E-02  1.3956498927081E-01
106  1.0500000000000E+00  9.2237491859932E-02  1.2321910607196E-01
107  1.0600000000000E+00  8.7465664874925E-02  1.0788784907957E-01
108  1.0700000000000E+00  8.1218579102690E-02  9.3574169561980E-02
109  1.0800000000000E+00  7.3849218564161E-02  8.0279873113744E-02
110  1.0900000000000E+00  6.5703208581613E-02  6.8005839508643E-02
111  1.1000000000000E+00  5.7112921387597E-02  5.6752232077276E-02
112  1.1100000000000E+00  4.8391839631618E-02  4.6518693882688E-02
113  1.1200000000000E+00  3.9829260128631E-02  3.7304528092084E-02
114  1.1300000000000E+00  3.1685415141800E-02  2.9108860134548E-02
115  1.1400000000000E+00  2.4187084061441E-02  2.1930779391651E-02
116  1.1500000000000E+00  1.7523760888392E-02  1.5769458416035E-02
117  1.1600000000000E+00  1.1844435825830E-02  1.0624247894770E-02
118  1.1700000000000E+00  7.2575423590896E-03  6.4970627071937E-03
119  1.1800000000000E+00  3.8074343291944E-03  3.3733241366159E-03
120  1.1900000000000E+00  1.5373316984632E-03  1.2770829642717E-03
121  1.2000000000000E+00  4.7781939861312E-04  2.5527870810433E-04
122  1.2100000000000E+00  1.2154259331191E-04 -2.1438680238785E-05
123  1.2200000000000E+00  6.5524244490711E-07 -6.0097874415606E-07
124  1.2300000000000E+00 -5.7942518196086E-06  9.5875281238691E-06
125  1.2400000000000E+00  2.5040576659199E-06 -1.8556418620341E-06
126  1.2500000000000E+00 -7.1793322636900E-08 -1.1847771757435E-08
127  1.2600000000000E+00 -5.2710387871688E-07 -8.6985895318993E-08
128  1.2700000000000E+00  0.0000000000000E+00  0.0000000000000E+00
129  1.2800000000000E+00  0.0000000000000E+00  0.0000000000000E+00
130  1.2900000000000E+00  0.0000000000000E+00  0.0000000000000E+00
131  1.3000000000000E+00  0.0000000000000E+00  0.0000000000000E+00
132  1.3100000000000E+00  0.0000000000000E+00  0.0000000000000E+00
133  1.3200000000000E+00  0.0000000000000E+00  0.0000000000000E+00
134  1.3300000000000E+00  0.0000000000000E+00  0.0000000000000E+00
135  1.3400000000000E+00  0.0000000000000E+00  0.0000000000000E+00
136  1.3500000000000E+00  0.0000000000000E+00  0.0000000000000E+00
137  1.3600000000000E+00  0.0000000000000E+00  0.0000000000000E+00
138  1.3700000000000E+00  0.0000000000000E+00  0.0000000000000E+00
139  1.3800000000000E+00  0.0000000000000E+00  0.0000000000000E+00
140  1.3900000000000E+00  0.0000000000000E+00  0.0000000000000E+00
141  1.4000000000000E+00  0.0000000000000E+00  0.0000000000000E+00
142  1.4100000000000E+00  0.0000000000000E+00  0.0000000000000E+00
143  1.4200000000000E+00  0.0000000000000E+00  0.0000000000000E+00
144  1.4300000000000E+00  0.0000000000000E+00  0.0000000000000E+00
145  1.4400000000000E+00  0.0000000000000E+00  0.0000000000000E+00
146  1.4500000000000E+00  0.0000000000000E+00  0.0000000000000E+00
147  1.4600000000000E+00  0.0000000000000E+00  0.0000000000000E+00
148  1.4700000000000E+00  0.0000000000000E+00  0.0000000000000E+00
149  1.4800000000000E+00  0.0000000000000E+00  0.0000000000000E+00
150  1.4900000000000E+00  0.0000000000000E+00  0.0000000000000E+00
151  1.5000000000000E+00  0.0000000000000E+00  0.0000000000000E+00
152  1.5100000000000E+00  0.0000000000000E+00  0.0000000000000E+00
153  1.5200000000000E+00  0.0000000000000E+00  0.0000000000000E+00
154  1.5300000000000E+00  0.0000000000000E+00  0.0000000000000E+00
155  1.5400000000000E+00  0.0000000000000E+00  0.0000000000000E+00
156  1.5500000000000E+00  0.0000000000000E+00  0.0000000000000E+00
157  1.5600000000000E+00  0.0000000000000E+00  0.0000000000000E+00
158  1.5700000000000E+00  0.0000000000000E+00  0.0000000000000E+00
159  1.5800000000000E+00  0.0000000000000E+00  0.0000000000000E+00
160  1.5900000000000E+00  0.0000000000000E+00  0.0000000000000E+00
161  1.6000000000000E+00  0.0000000000000E+00  0.0000000000000E+00
162  1.6100000000000E+00  0.0000000000000E+00  0.0000000000000E+00
163  1.6200000000000E+00  0.0000000000000E+00  0.0000000000000E+00
164  1.6300000000000E+00  0.0000000000000E+00  0.0000000000000E+00
165  1.6400000000000E+00  0.0000000000000E+00  0.0000000000000E+00
166  1.6500000000000E+00  0.0000000000000E+00  0.0000000000000E+00
167  1.6600000000000E+00  0.0000000000000E+00  0.0000000000000E+00
168  1.6700000000000E+00  0.0000000000000E+00  0.0000000000000E+00
169  1.6800000000000E+00  0.0000000000000E+00  0.0000000000000E+00
170  1.6900000000000E+00  0.0000000000000E+00  0.0000000000000E+00
171  1.7000000000000E+00  0.0000000000000E+00  0.0000000000000E+00
172  1.7100000000000E+00  0.0000000000000E+00  0.0000000000000E+00
173  1.7200000000000E+00  0.0000000000000E+00  0.0000000000000E+00
174  1.7300000000000E+00  0.0000000000000E+00  0.0000000000000E+00
175  1.7400000000000E+00  0.0000000000000E+00  0.0000000000000E+00
176  1.7500000000000E+00  0.0000000000000E+00  0.0000000000000E+00
177  1.7600000000000E+00  0.0000000000000E+00  0.0000000000000E+00
178  1.7700000000000E+00  0.0000000000000E+00  0.0000000000000E+00
179  1.7800000000000E+00  0.0000000000000E+00  0.0000000000000E+00
180  1.7900000000000E+00  0.0000000000000E+00  0.0000000000000E+00
181  1.8000000000000E+00  0.0000000000000E+00  0.0000000000000E+00
182  1.8100000000000E+00  0.0000000000000E+00  0.0000000000000E+00
183  1.8200000000000E+00  0.0000000000000E+00  0.0000000000000E+00
184  1.8300000000000E+00  0.0000000000000E+00  0.0000000000000E+00
185  1.8400000000000E+00  0.0000000000000E+00  0.0000000000000E+00
186  1.8500000000000E+00  0.0000000000000E+00  0.0000000000000E+00
187  1.8600000000000E+00  0.0000000000000E+00  0.0000000000000E+00
188  1.8700000000000E+00  0.0000000000000E+00  0.0000000000000E+00
189  1.8800000000000E+00  0.0000000000000E+00  0.0000000000000E+00
190  1.8900000000000E+00  0.0000000000000E+00  0.0000000000000E+00
191  1.9000000000000E+00  0.0000000000000E+00  0.0000000000000E+00
192  1.9100000000000E+00  0.0000000000000E+00  0.0000000000000E+00
193  1.9200000000000E+00  0.0000000000000E+00  0.0000000000000E+00
194  1.9300000000000E+00  0.0000000000000E+00  0.0000000000000E+00
195  1.9400000000000E+00  0.0000000000000E+00  0.0000000000000E+00
196  1.9500000000000E+00  0.0000000000000E+00  0.0000000000000E+00
197  1.9600000000000E+00  0.0000000000000E+00  0.0000000000000E+00
198  1.9700000000000E+00  0.0000000000000E+00  0.0000000000000E+00
199  1.9800000000000E+00  0.0000000000000E+00  0.0000000000000E+00
200  1.9900000000000E+00  0.0000000000000E+00  0.0000000000000E+00
201  2.0000000000000E+00  0.0000000000000E+00  0.0000000000000E+00
202  2.0100000000000E+00  0.0000000000000E+00  0.0000000000000E+00
203  2.0200000000000E+00  0.0000000000000E+00  0.0000000000000E+00
204  2.0300000000000E+00  0.0000000000000E+00  0.0000000000000E+00
205  2.0400000000000E+00  0.0000000000000E+00  0.0000000000000E+00
206  2.0500000000000E+00  0.0000000000000E+00  0.0000000000000E+00
207  2.0600000000000E+00  0.0000000000000E+00  0.0000000000000E+00
208  2.0700000000000E+00  0.0000000000000E+00  0.0000000000000E+00
209  2.0800000000000E+00  0.0000000000000E+00  0.0000000000000E+00
210  2.0900000000000E+00  0.0000000000000E+00  0.0000000000000E+00
211  2.1000000000000E+00  0.0000000000000E+00  0.0000000000000E+00
212  2.1100000000000E+00  0.0000000000000E+00  0.0000000000000E+00
213  2.1200000000000E+00  0.0000000000000E+00  0.0000000000000E+00
214  2.1300000000000E+00  0.0000000000000E+00  0.0000000000000E+00
215  2.1400000000000E+00  0.0000000000000E+00  0.0000000000000E+00
216  2.1500000000000E+00  0.0000000000000E+00  0.0000000000000E+00
217  2.1600000000000E+00  0.0000000000000E+00  0.0000000000000E+00
218  2.1700000000000E+00  0.0000000000000E+00  0.0000000000000E+00
219  2.1800000000000E+00  0.0000000000000E+00  0.0000000000000E+00
220  2.1900000000000E+00  0.0000000000000E+00  0.0000000000000E+00
221  2.2000000000000E+00  0.0000000000000E+00  0.0000000000000E+00
222  2.2100000000000E+00  0.0000000000000E+00  0.0000000000000E+00
223  2.2200000000000E+00  0.0000000000000E+00  0.0000000000000E+00
224  2.2300000000000E+00  0.0000000000000E+00  0.0000000000000E+00
225  2.2400000000000E+00  0.0000000000000E+00  0.0000000000000E+00
226  2.2500000000000E+00  0.0000000000000E+00  0.0000000000000E+00
227  2.2600000000000E+00  0.0000000000000E+00  0.0000000000000E+00
228  2.2700000000000E+00  0.0000000000000E+00  0.0000000000000E+00
229  2.2800000000000E+00  0.0000000000000E+00  0.0000000000000E+00
230  2.2900000000000E+00  0.0000000000000E+00  0.0000000000000E+00
231  2.3000000000000E+00  0.0000000000000E+00  0.0000000000000E+00
232  2.3100000000000E+00  0.0000000000000E+00  0.0000000000000E+00
233  2.3200000000000E+00  0.0000000000000E+00  0.0000000000000E+00
234  2.3300000000000E+00  0.0000000000000E+00  0.0000000000000E+00
235  2.3400000000000E+00  0.0000000000000E+00  0.0000000000000E+00
236  2.3500000000000E+00  0.0000000000000E+00  0.0000000000000E+00
237  2.3600000000000E+00  0.0000000000000E+00  0.0000000000000E+00
238  2.3700000000000E+00  0.0000000000000E+00  0.0000000000000E+00
239  2.3800000000000E+00  0.0000000000000E+00  0.0000000000000E+00
240  2.3900000000000E+00  0.0000000000000E+00  0.0000000000000E+00
241  2.4000000000000E+00  0.0000000000000E+00  0.0000000000000E+00
242  2.4100000000000E+00  0.0000000000000E+00  0.0000000000000E+00
243  2.4200000000000E+00  0.0000000000000E+00  0.0000000000000E+00
244  2.4300000000000E+00  0.0000000000000E+00  0.0000000000000E+00
245  2.4400000000000E+00  0.0000000000000E+00  0.0000000000000E+00
246  2.4500000000000E+00  0.0000000000000E+00  0.0000000000000E+00
247  2.4600000000000E+00  0.0000000000000E+00  0.0000000000000E+00
248  2.4700000000000E+00  0.0000000000000E+00  0.0000000000000E+00
249  2.4800000000000E+00  0.0000000000000E+00  0.0000000000000E+00
250  2.4900000000000E+00  0.0000000000000E+00  0.0000000000000E+00
251  2.5000000000000E+00  0.0000000000000E+00  0.0000000000000E+00
252  2.5100000000000E+00  0.0000000000000E+00  0.0000000000000E+00
253  2.5200000000000E+00  0.0000000000000E+00  0.0000000000000E+00
254  2.5300000000000E+00  0.0000000000000E+00  0.0000000000000E+00
255  2.5400000000000E+00  0.0000000000000E+00  0.0000000000000E+00
256  2.5500000000000E+00  0.0000000000000E+00  0.0000000000000E+00
257  2.5600000000000E+00  0.0000000000000E+00  0.0000000000000E+00
258  2.5700000000000E+00  0.0000000000000E+00  0.0000000000000E+00
259  2.5800000000000E+00  0.0000000000000E+00  0.0000000000000E+00
260  2.5900000000000E+00  0.0000000000000E+00  0.0000000000000E+00
261  2.6000000000000E+00  0.0000000000000E+00  0.0000000000000E+00
262  2.6100000000000E+00  0.0000000000000E+00  0.0000000000000E+00
263  2.6200000000000E+00  0.0000000000000E+00  0.0000000000000E+00
264  2.6300000000000E+00  0.0000000000000E+00  0.0000000000000E+00
265  2.6400000000000E+00  0.0000000000000E+00  0.0000000000000E+00
266  2.6500000000000E+00  0.0000000000000E+00  0.0000000000000E+00
267  2.6600000000000E+00  0.0000000000000E+00  0.0000000000000E+00
268  2.6700000000000E+00  0.0000000000000E+00  0.0000000000000E+00
269  2.6800000000000E+00  0.0000000000000E+00  0.0000000000000E+00
270  2.6900000000000E+00  0.0000000000000E+00  0.0000000000000E+00
271  2.7000000000000E+00  0.0000000000000E+00  0.0000000000000E+00
272  2.7100000000000E+00  0.0000000000000E+00  0.0000000000000E+00
273  2.7200000000000E+00  0.0000000000000E+00  0.0000000000000E+00
274  2.7300000000000E+00  0.0000000000000E+00  0.0000000000000E+00
275  2.7400000000000E+00  0.0000000000000E+00  0.0000000000000E+00
276  2.7500000000000E+00  0.0000000000000E+00  0.0000000000000E+00
277  2.7600000000000E+00  0.0000000000000E+00  0.0000000000000E+00
278  2.7700000000000E+00  0.0000000000000E+00  0.0000000000000E+00
279  2.7800000000000E+00  0.0000000000000E+00  0.0000000000000E+00
280  2.7900000000000E+00  0.0000000000000E+00  0.0000000000000E+00
281  2.8000000000000E+00  0.0000000000000E+00  0.0000000000000E+00
282  2.8100000000000E+00  0.0000000000000E+00  0.0000000000000E+00
283  2.8200000000000E+00  0.0000000000000E+00  0.0000000000000E+00
284  2.8300000000000E+00  0.0000000000000E+00  0.0000000000000E+00
285  2.8400000000000E+00  0.0000000000000E+00  0.0000000000000E+00
286  2.8500000000000E+00  0.0000000000000E+00  0.0000000000000E+00
287  2.8600000000000E+00  0.0000000000000E+00  0.0000000000000E+00
288  2.8700000000000E+00  0.0000000000000E+00  0.0000000000000E+00
289  2.8800000000000E+00  0.0000000000000E+00  0.0000000000000E+00
290  2.8900000000000E+00  0.0000000000000E+00  0.0000000000000E+00
291  2.9000000000000E+00  0.0000000000000E+00  0.0000000000000E+00
292  2.9100000000000E+00  0.0000000000000E+00  0.0000000000000E+00
293  2.9200000000000E+00  0.0000000000000E+00  0.0000000000000E+00
294  2.9300000000000E+00  0.0000000000000E+00  0.0000000000000E+00
295  2.9400000000000E+00  0.0000000000000E+00  0.0000000000000E+00
296  2.9500000000000E+00  0.0000000000000E+00  0.0000000000000E+00
297  2.9600000000000E+00  0.0000000000000E+00  0.0000000000000E+00
298  2.9700000000000E+00  0.0000000000000E+00  0.0000000000000E+00
299  2.9800000000000E+00  0.0000000000000E+00  0.0000000000000E+00
300  2.9900000000000E+00  0.0000000000000E+00  0.0000000000000E+00
301  3.0000000000000E+00  0.0000000000000E+00  0.0000000000000E+00
302  3.0100000000000E+00  0.0000000000000E+00  0.0000000000000E+00
303  3.0200000000000E+00  0.0000000000000E+00  0.0000000000000E+00
304  3.0300000000000E+00  0.0000000000000E+00  0.0000000000000E+00
305  3.0400000000000E+00  0.0000000000000E+00  0.0000000000000E+00
306  3.0500000000000E+00  0.0000000000000E+00  0.0000000000000E+00
307  3.0600000000000E+00  0.0000000000000E+00  0.0000000000000E+00
308  3.0700000000000E+00  0.0000000000000E+00  0.0000000000000E+00
309  3.0800000000000E+00  0.0000000000000E+00  0.0000000000000E+00
310  3.0900000000000E+00  0.0000000000000E+00  0.0000000000000E+00
311  3.1000000000000E+00  0.0000000000000E+00  0.0000000000000E+00
312  3.1100000000000E+00  0.0000000000000E+00  0.0000000000000E+00
313  3.1200000000000E+00  0.0000000000000E+00  0.0000000000000E+00
314  3.1300000000000E+00  0.0000000000000E+00  0.0000000000000E+00
315  3.1400000000000E+00  0.0000000000000E+00  0.0000000000000E+00
316  3.1500000000000E+00  0.0000000000000E+00  0.0000000000000E+00
317  3.1600000000000E+00  0.0000000000000E+00  0.0000000000000E+00
318  3.1700000000000E+00  0.0000000000000E+00  0.0000000000000E+00
319  3.1800000000000E+00  0.0000000000000E+00  0.0000000000000E+00
320  3.1900000000000E+00  0.0000000000000E+00  0.0000000000000E+00
321  3.2000000000000E+00  0.0000000000000E+00  0.0000000000000E+00
322  3.2100000000000E+00  0.0000000000000E+00  0.0000000000000E+00
323  3.2200000000000E+00  0.0000000000000E+00  0.0000000000000E+00
324  3.2300000000000E+00  0.0000000000000E+00  0.0000000000000E+00
325  3.2400000000000E+00  0.0000000000000E+00  0.0000000000000E+00
326  3.2500000000000E+00  0.0000000000000E+00  0.0000000000000E+00
327  3.2600000000000E+00  0.0000000000000E+00  0.0000000000000E+00
328  3.2700000000000E+00  0.0000000000000E+00  0.0000000000000E+00
329  3.2800000000000E+00  0.0000000000000E+00  0.0000000000000E+00
330  3.2900000000000E+00  0.0000000000000E+00  0.0000000000000E+00
331  3.3000000000000E+00  0.0000000000000E+00  0.0000000000000E+00
332  3.3100000000000E+00  0.0000000000000E+00  0.0000000000000E+00
333  3.3200000000000E+00  0.0000000000000E+00  0.0000000000000E+00
334  3.3300000000000E+00  0.0000000000000E+00  0.0000000000000E+00
335  3.3400000000000E+00  0.0000000000000E+00  0.0000000000000E+00
336  3.3500000000000E+00  0.0000000000000E+00  0.0000000000000E+00
337  3.3600000000000E+00  0.0000000000000E+00  0.0000000000000E+00
338  3.3700000000000E+00  0.0000000000000E+00  0.0000000000000E+00
339  3.3800000000000E+00  0.0000000000000E+00  0.0000000000000E+00
340  3.3900000000000E+00  0.0000000000000E+00  0.0000000000000E+00
341  3.4000000000000E+00  0.0000000000000E+00  0.0000000000000E+00
342  3.4100000000000E+00  0.0000000000000E+00  0.0000000000000E+00
343  3.4200000000000E+00  0.0000000000000E+00  0.0000000000000E+00
344  3.4300000000000E+00  0.0000000000000E+00  0.0000000000000E+00
345  3.4400000000000E+00  0.0000000000000E+00  0.0000000000000E+00
346  3.4500000000000E+00  0.0000000000000E+00  0.0000000000000E+00
347  3.4600000000000E+00  0.0000000000000E+00  0.0000000000000E+00
348  3.4700000000000E+00  0.0000000000000E+00  0.0000000000000E+00
349  3.4800000000000E+00  0.0000000000000E+00  0.0000000000000E+00
350  3.4900000000000E+00  0.0000000000000E+00  0.0000000000000E+00
351  3.5000000000000E+00  0.0000000000000E+00  0.0000000000000E+00
352  3.5100000000000E+00  0.0000000000000E+00  0.0000000000000E+00
353  3.5200000000000E+00  0.0000000000000E+00  0.0000000000000E+00
354  3.5300000000000E+00  0.0000000000000E+00  0.0000000000000E+00
355  3.5400000000000E+00  0.0000000000000E+00  0.0000000000000E+00
356  3.5500000000000E+00  0.0000000000000E+00  0.0000000000000E+00
357  3.5600000000000E+00  0.0000000000000E+00  0.0000000000000E+00
358  3.5700000000000E+00  0.0000000000000E+00  0.0000000000000E+00
359  3.5800000000000E+00  0.0000000000000E+00  0.0000000000000E+00
360  3.5900000000000E+00  0.0000000000000E+00  0.0000000000000E+00
361  3.6000000000000E+00  0.0000000000000E+00  0.0000000000000E+00
362  3.6100000000000E+00  0.0000000000000E+00  0.0000000000000E+00
363  3.6200000000000E+00  0.0000000000000E+00  0.0000000000000E+00
364  3.6300000000000E+00  0.0000000000000E+00  0.0000000000000E+00
365  3.6400000000000E+00  0.0000000000000E+00  0.0000000000000E+00
366  3.6500000000000E+00  0.0000000000000E+00  0.0000000000000E+00
367  3.6600000000000E+00  0.0000000000000E+00  0.0000000000000E+00
368  3.6700000000000E+00  0.0000000000000E+00  0.0000000000000E+00
369  3.6800000000000E+00  0.0000000000000E+00  0.0000000000000E+00
370  3.6900000000000E+00  0.0000000000000E+00  0.0000000000000E+00
371  3.7000000000000E+00  0.0000000000000E+00  0.0000000000000E+00
372  3.7100000000000E+00  0.0000000000000E+00  0.0000000000000E+00
373  3.7200000000000E+00  0.0000000000000E+00  0.0000000000000E+00
374  3.7300000000000E+00  0.0000000000000E+00  0.0000000000000E+00
375  3.7400000000000E+00  0.0000000000000E+00  0.0000000000000E+00
376  3.7500000000000E+00  0.0000000000000E+00  0.0000000000000E+00
377  3.7600000000000E+00  0.0000000000000E+00  0.0000000000000E+00
378  3.7700000000000E+00  0.0000000000000E+00  0.0000000000000E+00
379  3.7800000000000E+00  0.0000000000000E+00  0.0000000000000E+00
380  3.7900000000000E+00  0.0000000000000E+00  0.0000000000000E+00
381  3.8000000000000E+00  0.0000000000000E+00  0.0000000000000E+00
382  3.8100000000000E+00  0.0000000000000E+00  0.0000000000000E+00
383  3.8200000000000E+00  0.0000000000000E+00  0.0000000000000E+00
384  3.8300000000000E+00  0.0000000000000E+00  0.0000000000000E+00
385  3.8400000000000E+00  0.0000000000000E+00  0.0000000000000E+00
386  3.8500000000000E+00  0.0000000000000E+00  0.0000000000000E+00
387  3.8600000000000E+00  0.0000000000000E+00  0.0000000000000E+00
388  3.8700000000000E+00  0.0000000000000E+00  0.0000000000000E+00
389  3.8800000000000E+00  0.0000000000000E+00  0.0000000000000E+00
390  3.8900000000000E+00  0.0000000000000E+00  0.0000000000000E+00
391  3.9000000000000E+00  0.0000000000000E+00  0.0000000000000E+00
392  3.9100000000000E+00  0.0000000000000E+00  0.0000000000000E+00
393  3.9200000000000E+00  0.0000000000000E+00  0.0000000000000E+00
394  3.9300000000000E+00  0.0000000000000E+00  0.0000000000000E+00
395  3.9400000000000E+00  0.0000000000000E+00  0.0000000000000E+00
396  3.9500000000000E+00  0.0000000000000E+00  0.0000000000000E+00
397  3.9600000000000E+00  0.0000000000000E+00  0.0000000000000E+00
398  3.9700000000000E+00  0.0000000000000E+00  0.0000000000000E+00
399  3.9800000000000E+00  0.0000000000000E+00  0.0000000000000E+00
400  3.9900000000000E+00  0.0000000000000E+00  0.0000000000000E+00
401  4.0000000000000E+00  0.0000000000000E+00  0.0000000000000E+00
402  4.0100000000000E+00  0.0000000000000E+00  0.0000000000000E+00
403  4.0200000000000E+00  0.0000000000000E+00  0.0000000000000E+00
404  4.0300000000000E+00  0.0000000000000E+00  0.0000000000000E+00
405  4.0400000000000E+00  0.0000000000000E+00  0.0000000000000E+00
406  4.0500000000000E+00  0.0000000000000E+00  0.0000000000000E+00
407  4.0600000000000E+00  0.0000000000000E+00  0.0000000000000E+00
408  4.0700000000000E+00  0.0000000000000E+00  0.0000000000000E+00
409  4.0800000000000E+00  0.0000000000000E+00  0.0000000000000E+00
410  4.0900000000000E+00  0.0000000000000E+00  0.0000000000000E+00
411  4.1000000000000E+00  0.0000000000000E+00  0.0000000000000E+00
412  4.1100000000000E+00  0.0000000000000E+00  0.0000000000000E+00
413  4.1200000000000E+00  0.0000000000000E+00  0.0000000000000E+00
414  4.1300000000000E+00  0.0000000000000E+00  0.0000000000000E+00
415  4.1400000000000E+00  0.0000000000000E+00  0.0000000000000E+00
416  4.1500000000000E+00  0.0000000000000E+00  0.0000000000000E+00
417  4.1600000000000E+00  0.0000000000000E+00  0.0000000000000E+00
418  4.1700000000000E+00  0.0000000000000E+00  0.0000000000000E+00
419  4.1800000000000E+00  0.0000000000000E+00  0.0000000000000E+00
420  4.1900000000000E+00  0.0000000000000E+00  0.0000000000000E+00
421  4.2000000000000E+00  0.0000000000000E+00  0.0000000000000E+00
422  4.2100000000000E+00  0.0000000000000E+00  0.0000000000000E+00
423  4.2200000000000E+00  0.0000000000000E+00  0.0000000000000E+00
424  4.2300000000000E+00  0.0000000000000E+00  0.0000000000000E+00
425  4.2400000000000E+00  0.0000000000000E+00  0.0000000000000E+00
426  4.2500000000000E+00  0.0000000000000E+00  0.0000000000000E+00
427  4.2600000000000E+00  0.0000000000000E+00  0.0000000000000E+00
428  4.2700000000000E+00  0.0000000000000E+00  0.0000000000000E+00
429  4.2800000000000E+00  0.0000000000000E+00  0.0000000000000E+00
430  4.2900000000000E+00  0.0000000000000E+00  0.0000000000000E+00
431  4.3000000000000E+00  0.0000000000000E+00  0.0000000000000E+00
432  4.3100000000000E+00  0.0000000000000E+00  0.0000000000000E+00
433  4.3200000000000E+00  0.0000000000000E+00  0.0000000000000E+00
434  4.3300000000000E+00  0.0000000000000E+00  0.0000000000000E+00
435  4.3400000000000E+00  0.0000000000000E+00  0.0000000000000E+00
436  4.3500000000000E+00  0.0000000000000E+00  0.0000000000000E+00
437  4.3600000000000E+00  0.0000000000000E+00  0.0000000000000E+00
438  4.3700000000000E+00  0.0000000000000E+00  0.0000000000000E+00
439  4.3800000000000E+00  0.0000000000000E+00  0.0000000000000E+00
440  4.3900000000000E+00  0.0000000000000E+00  0.0000000000000E+00
441  4.4000000000000E+00  0.0000000000000E+00  0.0000000000000E+00
442  4.4100000000000E+00  0.0000000000000E+00  0.0000000000000E+00
443  4.4200000000000E+00  0.0000000000000E+00  0.0000000000000E+00