Br    ONCVPSP-3.2.3.1  r_core=   1.81012   1.51356   1.92136
35.0000     17.0000      170713    zatom,zion,pspd
8      11   2     4   600     0    pspcod,pspxc,lmax,lloc,mmax,r2well
5.99000000  3.50000000  0.00000000    rchrg fchrg qchrg
2     2     2     0     0    nproj
1     1           extension_switch
0                         8.4797800787273E+00  8.8594338098521E-01
1  0.0000000000000E+00  2.7383761924682E-11 -1.4821741056714E-11
2  1.0000000000000E-02  3.6671759635915E-02 -1.3199170136725E-02
3  2.0000000000000E-02  7.3335378818564E-02 -2.6402295271179E-02
4  3.0000000000000E-02  1.0998256252721E-01 -3.9613107787851E-02
5  4.0000000000000E-02  1.4660470775228E-01 -5.2834896135024E-02
6  5.0000000000000E-02  1.8319275235919E-01 -6.6070286078668E-02
7  6.0000000000000E-02  2.1973702736277E-01 -7.9321025812516E-02
8  7.0000000000000E-02  2.5622711371681E-01 -9.2587776192611E-02
9  8.0000000000000E-02  2.9265170469601E-01 -1.0586990734982E-01
10  9.0000000000000E-02  3.2899847491378E-01 -1.1916530291521E-01
11  1.0000000000000E-01  3.6525395697874E-01 -1.3247017307055E-01
12  1.1000000000000E-01  4.0140342674679E-01 -1.4577887760975E-01
13  1.2000000000000E-01  4.3743079807301E-01 -1.5908376016609E-01
14  1.3000000000000E-01  4.7331852791008E-01 -1.7237499472517E-01
15  1.4000000000000E-01  5.0904753253670E-01 -1.8564044550396E-01
16  1.5000000000000E-01  5.4459711563177E-01 -1.9886554123253E-01
17  1.6000000000000E-01  5.7994490883756E-01 -2.1203316482589E-01
18  1.7000000000000E-01  6.1506682537886E-01 -2.2512355938060E-01
19  1.8000000000000E-01  6.4993702722493E-01 -2.3811425137164E-01
20  1.9000000000000E-01  6.8452790619806E-01 -2.5097999186247E-01
21  2.0000000000000E-01  7.1881007934654E-01 -2.6369271647224E-01
22  2.1000000000000E-01  7.5275239881225E-01 -2.7622152477070E-01
23  2.2000000000000E-01  7.8632197633286E-01 -2.8853267969328E-01
24  2.3000000000000E-01  8.1948422242864E-01 -3.0058962748420E-01
25  2.4000000000000E-01  8.5220290023175E-01 -3.1235303858761E-01
26  2.5000000000000E-01  8.8444019382540E-01 -3.2378086981257E-01
27  2.6000000000000E-01  9.1615679086843E-01 -3.3482844799941E-01
28  2.7000000000000E-01  9.4731197919195E-01 -3.4544857531198E-01
29  2.8000000000000E-01  9.7786375696553E-01 -3.5559165617280E-01
30  2.9000000000000E-01  1.0077689559450E+00 -3.6520584574679E-01
31  3.0000000000000E-01  1.0369833772298E+00 -3.7423721976393E-01
32  3.1000000000000E-01  1.0654619388770E+00 -3.8262996535279E-01
33  3.2000000000000E-01  1.0931588346441E+00 -3.9032659243576E-01
34  3.3000000000000E-01  1.1200277030563E+00 -3.9726816511258E-01
35  3.4000000000000E-01  1.1460218059301E+00 -4.0339455233405E-01
36  3.5000000000000E-01  1.1710942154169E+00 -4.0864469704079E-01
37  3.6000000000000E-01  1.1951980085770E+00 -4.1295690281494E-01
38  3.7000000000000E-01  1.2182864684368E+00 -4.1626913696624E-01
39  3.8000000000000E-01  1.2403132904405E+00 -4.1851934884784E-01
40  3.9000000000000E-01  1.2612327931638E+00 -4.1964580207353E-01
41  4.0000000000000E-01  1.2810001321249E+00 -4.1958741918682E-01
42  4.1000000000000E-01  1.2995715155008E+00 -4.1828413721472E-01
43  4.2000000000000E-01  1.3169044205385E+00 -4.1567727242580E-01
44  4.3000000000000E-01  1.3329578094342E+00 -4.1170989250438E-01
45  4.4000000000000E-01  1.3476923434525E+00 -4.0632719425122E-01
46  4.5000000000000E-01  1.3610705940547E+00 -3.9947688482676E-01
47  4.6000000000000E-01  1.3730572498177E+00 -3.9110956446699E-01
48  4.7000000000000E-01  1.3836193179382E+00 -3.8117910852505E-01
49  4.8000000000000E-01  1.3927263191413E+00 -3.6964304662425E-01
50  4.9000000000000E-01  1.4003504748424E+00 -3.5646293665285E-01
51  5.0000000000000E-01  1.4064668854480E+00 -3.4160473128542E-01
52  5.1000000000000E-01  1.4110536987236E+00 -3.2503913468449E-01
53  5.2000000000000E-01  1.4140922672092E+00 -3.0674194701647E-01
54  5.3000000000000E-01  1.4155672937151E+00 -2.8669439441158E-01
55  5.4000000000000E-01  1.4154669639958E+00 -2.6488344200604E-01
56  5.5000000000000E-01  1.4137830657644E+00 -2.4130208772994E-01
57  5.6000000000000E-01  1.4105110932834E+00 -2.1594963454277E-01
58  5.7000000000000E-01  1.4056503368432E+00 -1.8883193887488E-01
59  5.8000000000000E-01  1.3992039565212E+00 -1.5996163310344E-01
60  5.9000000000000E-01  1.3911790396987E+00 -1.2935831997900E-01
61  6.0000000000000E-01  1.3815866418983E+00 -9.7048737021558E-02
62  6.1000000000000E-01  1.3704418105987E+00 -6.3066889024007E-02
63  6.2000000000000E-01  1.3577635917707E+00 -2.7454146935135E-02
64  6.3000000000000E-01  1.3435750189762E+00  9.7406884555682E-03
65  6.4000000000000E-01  1.3279030849640E+00  4.8461359445295E-02
66  6.5000000000000E-01  1.3107786957922E+00  8.8644162192639E-02
67  6.6000000000000E-01  1.2922366076018E+00  1.3021799638279E-01
68  6.7000000000000E-01  1.2723153462590E+00  1.7310445462258E-01
69  6.8000000000000E-01  1.2510571101777E+00  2.1721795218900E-01
70  6.9000000000000E-01  1.2285076567252E+00  2.6246589752806E-01
71  7.0000000000000E-01  1.2047161726985E+00  3.0874890366644E-01
72  7.1000000000000E-01  1.1797351294507E+00  3.5596104045539E-01
73  7.2000000000000E-01  1.1536201233215E+00  4.0399012731648E-01
74  7.3000000000000E-01  1.1264297021110E+00  4.5271806590538E-01
75  7.4000000000000E-01  1.0982251784045E+00  5.0202121185200E-01
76  7.5000000000000E-01  1.0690704306275E+00  5.5177078447707E-01
77  7.6000000000000E-01  1.0390316927737E+00  6.0183331312614E-01
78  7.7000000000000E-01  1.0081773338062E+00  6.5207111850610E-01
79  7.8000000000000E-01  9.7657762778475E-01  7.0234282715607E-01
80  7.9000000000000E-01  9.4430451581920E-01  7.5250391693770E-01
81  8.0000000000000E-01  9.1143136098634E-01  8.0240729119075E-01
82  8.1000000000000E-01  8.7803269738389E-01  8.5190387896982E-01
83  8.2000000000000E-01  8.4418397451907E-01  9.0084325855916E-01
84  8.3000000000000E-01  8.0996129825016E-01  9.4907430125704E-01
85  8.4000000000000E-01  7.7544116951139E-01  9.9644583223051E-01
86  8.5000000000000E-01  7.4070022205734E-01  1.0428073050666E+00
87  8.6000000000000E-01  7.0581496046157E-01  1.0880094864901E+00
88  8.7000000000000E-01  6.7086149959605E-01  1.1319051475816E+00
89  8.8000000000000E-01  6.3591530680251E-01  1.1743497577129E+00
90  8.9000000000000E-01  6.0105094794573E-01  1.2152021773247E+00
91  9.0000000000000E-01  5.6634183851018E-01  1.2543253456004E+00
92  9.1000000000000E-01  5.3186000086713E-01  1.2915869590451E+00
93  9.2000000000000E-01  4.9767582879930E-01  1.3268601369573E+00
94  9.3000000000000E-01  4.6385786032386E-01  1.3600240697871E+00
95  9.4000000000000E-01  4.3047255980345E-01  1.3909646464067E+00
96  9.5000000000000E-01  3.9758411027885E-01  1.4195750563755E+00
97  9.6000000000000E-01  3.6525421689573E-01  1.4457563633698E+00
98  9.7000000000000E-01  3.3354192223345E-01  1.4694180460564E+00
99  9.8000000000000E-01  3.0250343427563E-01  1.4904785028284E+00
100  9.9000000000000E-01  2.7219196768943E-01  1.5088655169851E+00
101  1.0000000000000E+00  2.4265759900685E-01  1.5245166791268E+00
102  1.0100000000000E+00  2.1394713622423E-01  1.5373797637482E+00
103  1.0200000000000E+00  1.8610400325803E-01  1.5474130572487E+00
104  1.0300000000000E+00  1.5916813961349E-01  1.5545856348419E+00
105  1.0400000000000E+00  1.3317591554488E-01  1.5588775841156E+00
106  1.0500000000000E+00  1.0816006290389E-01  1.5602801732925E+00
107  1.0600000000000E+00  8.4149621790757E-02  1.5587959625641E+00
108  1.0700000000000E+00  6.1169903045190E-02  1.5544388571870E+00
109  1.0800000000000E+00  3.9242466533077E-02  1.5472341013811E+00
110  1.0900000000000E+00  1.8385115109221E-02  1.5372182124195E+00
111  1.1000000000000E+00 -1.3880959359345E-03  1.5244388546380E+00
112  1.1100000000000E+00 -2.0066834217441E-02  1.5089546534991E+00
113  1.1200000000000E+00 -3.7644450718862E-02  1.4908349501722E+00
114  1.1300000000000E+00 -5.4117925786199E-02  1.4701594975124E+00
115  1.1400000000000E+00 -6.9487801109044E-02  1.4470180985902E+00
116  1.1500000000000E+00 -8.3758098224526E-02  1.4215101894067E+00
117  1.1600000000000E+00 -9.6936224119779E-02  1.3937443676984E+00
118  1.1700000000000E+00 -1.0903286456766E-01  1.3638378701385E+00
119  1.1800000000000E+00 -1.2006186586393E-01  1.3319160004727E+00
120  1.1900000000000E+00 -1.3004010569303E-01  1.2981115115817E+00
121  1.2000000000000E+00 -1.3898735387369E-01  1.2625639446814E+00
122  1.2100000000000E+00 -1.4692612376626E-01  1.2254189291313E+00
123  1.2200000000000E+00 -1.5388151515533E-01  1.1868274466222E+00
124  1.2300000000000E+00 -1.5988104944169E-01  1.1469450637609E+00
125  1.2400000000000E+00 -1.6495449798825E-01  1.1059311372328E+00
126  1.2500000000000E+00 -1.6913370447964E-01  1.0639479958930E+00
127  1.2600000000000E+00 -1.7245240216279E-01  1.0211601043703E+00
128  1.2700000000000E+00 -1.7494602682786E-01  9.7773321280100E-01
129  1.2800000000000E+00 -1.7665152639837E-01  9.3383349741952E-01
130  1.2900000000000E+00 -1.7760716798013E-01  8.8962669684308E-01
131  1.3000000000000E+00 -1.7785234320226E-01  8.4527724881495E-01
132  1.3100000000000E+00 -1.7742737269029E-01  8.0094743227129E-01
133  1.3200000000000E+00 -1.7637331045704E-01  7.5679651946975E-01
134  1.3300000000000E+00 -1.7473174898877E-01  7.1297994283613E-01
135  1.3400000000000E+00 -1.7254462579692E-01  6.6964848123609E-01
136  1.3500000000000E+00 -1.6985403211942E-01  6.2694746995349E-01
137  1.3600000000000E+00 -1.6670202447961E-01  5.8501603875810E-01
138  1.3700000000000E+00 -1.6313043975463E-01  5.4398638221070E-01
139  1.3800000000000E+00 -1.5918071431506E-01  5.0398306574150E-01
140  1.3900000000000E+00 -1.5489370787530E-01  4.6512237157472E-01
141  1.4000000000000E+00 -1.5030953251445E-01  4.2751168740820E-01
142  1.4100000000000E+00 -1.4546738736755E-01  3.9124894095348E-01
143  1.4200000000000E+00 -1.4040539946396E-01  3.5642208338105E-01
144  1.4300000000000E+00 -1.3516047101223E-01  3.2310862329907E-01
145  1.4400000000000E+00 -1.2976813359011E-01  2.9137521416922E-01
146  1.4500000000000E+00 -1.2426240944485E-01  2.6127729605223E-01
147  1.4600000000000E+00 -1.1867568019946E-01  2.3285879323872E-01
148  1.4700000000000E+00 -1.1303856243116E-01  2.0615186478582E-01
149  1.4800000000000E+00 -1.0737979367351E-01  1.8117672690800E-01
150  1.4900000000000E+00 -1.0172612173400E-01  1.5794150636401E-01
151  1.5000000000000E+00 -9.6102231182853E-02  1.3644230848279E-01
152  1.5100000000000E+00 -9.0530561035141E-02  1.1666271776693E-01
153  1.5200000000000E+00 -8.5031317781117E-02  9.8574349541894E-02
154  1.5300000000000E+00 -7.9622691667527E-02  8.2138548441939E-02
155  1.5400000000000E+00 -7.4321066904000E-02  6.7307888344529E-02
156  1.5500000000000E+00 -6.9141348664067E-02  5.4028217898105E-02
157  1.5600000000000E+00 -6.4097011046958E-02  4.2239178032821E-02
158  1.5700000000000E+00 -5.9200096676280E-02  3.1874405420842E-02
159  1.5800000000000E+00 -5.4461320084630E-02  2.2862360668590E-02
160  1.5900000000000E+00 -4.9890124445589E-02  1.5126882024045E-02
161  1.6000000000000E+00 -4.5494759418730E-02  8.5878643647841E-03
162  1.6100000000000E+00 -4.1282356543038E-02  3.1619261660663E-03
163  1.6200000000000E+00 -3.7259007517190E-02 -1.2369054594058E-03
164  1.6300000000000E+00 -3.3429843818843E-02 -4.6965017664210E-03
165  1.6400000000000E+00 -2.9799116883507E-02 -7.3059364230776E-03
166  1.6500000000000E+00 -2.6370278207767E-02 -9.1547915553069E-03
167  1.6600000000000E+00 -2.3146058667349E-02 -1.0332470662162E-02
168  1.6700000000000E+00 -2.0128546434623E-02 -1.0927523276062E-02
169  1.6800000000000E+00 -1.7319262867089E-02 -1.1026985955227E-02
170  1.6900000000000E+00 -1.4719235778199E-02 -1.0715744364131E-02
171  1.7000000000000E+00 -1.2329069541541E-02 -1.0075920636770E-02
172  1.7100000000000E+00 -1.0149011489743E-02 -9.1862905064972E-03
173  1.7200000000000E+00 -8.1790141229895E-03 -8.1217340168275E-03
174  1.7300000000000E+00 -6.4187926738528E-03 -6.9527237309615E-03
175  1.7400000000000E+00 -4.8678775756096E-03 -5.7448540628224E-03
176  1.7500000000000E+00 -3.5259440461494E-03 -4.5595749373854E-03
177  1.7600000000000E+00 -2.3920124565998E-03 -3.4503597070100E-03
178  1.7700000000000E+00 -1.4636673812869E-03 -2.4561833434582E-03
179  1.7800000000000E+00 -7.4132900887681E-04 -1.6246518633841E-03
180  1.7900000000000E+00 -2.2915102220749E-04 -1.0386554984522E-03
181  1.8000000000000E+00  7.7241346244607E-05 -7.2205250426669E-04
182  1.8100000000000E+00  1.8702948833744E-04 -5.1518065042154E-04
183  1.8200000000000E+00  1.2739999589280E-04 -2.5519583881342E-04
184  1.8300000000000E+00  1.7427432616626E-05 -3.0696930321207E-05
185  1.8400000000000E+00 -2.6808561448459E-05  4.4691300634348E-05
186  1.8500000000000E+00 -1.1821350100834E-05  1.8749172648479E-05
187  1.8600000000000E+00  4.8688079807006E-06 -8.9625795776994E-06
188  1.8700000000000E+00  4.0948731484538E-06 -7.3712509290551E-06
189  1.8800000000000E+00 -3.0932879162269E-07  8.4706909350684E-07
190  1.8900000000000E+00 -4.7929009689216E-07  1.3124928519310E-06
191  1.9000000000000E+00  0.0000000000000E+00  0.0000000000000E+00
192  1.9100000000000E+00  0.0000000000000E+00  0.0000000000000E+00
193  1.9200000000000E+00  0.0000000000000E+00  0.0000000000000E+00
194  1.9300000000000E+00  0.0000000000000E+00  0.0000000000000E+00
195  1.9400000000000E+00  0.0000000000000E+00  0.0000000000000E+00
196  1.9500000000000E+00  0.0000000000000E+00  0.0000000000000E+00
197  1.9600000000000E+00  0.0000000000000E+00  0.0000000000000E+00
198  1.9700000000000E+00  0.0000000000000E+00  0.0000000000000E+00
199  1.9800000000000E+00  0.0000000000000E+00  0.0000000000000E+00
200  1.9900000000000E+00  0.0000000000000E+00  0.0000000000000E+00
201  2.0000000000000E+00  0.0000000000000E+00  0.0000000000000E+00
202  2.0100000000000E+00  0.0000000000000E+00  0.0000000000000E+00
203  2.0200000000000E+00  0.0000000000000E+00  0.0000000000000E+00
204  2.0300000000000E+00  0.0000000000000E+00  0.0000000000000E+00
205  2.0400000000000E+00  0.0000000000000E+00  0.0000000000000E+00
206  2.0500000000000E+00  0.0000000000000E+00  0.0000000000000E+00
207  2.0600000000000E+00  0.0000000000000E+00  0.0000000000000E+00
208  2.0700000000000E+00  0.0000000000000E+00  0.0000000000000E+00
209  2.0800000000000E+00  0.0000000000000E+00  0.0000000000000E+00
210  2.0900000000000E+00  0.0000000000000E+00  0.0000000000000E+00
211  2.1000000000000E+00  0.0000000000000E+00  0.0000000000000E+00
212  2.1100000000000E+00  0.0000000000000E+00  0.0000000000000E+00
213  2.1200000000000E+00  0.0000000000000E+00  0.0000000000000E+00
214  2.1300000000000E+00  0.0000000000000E+00  0.0000000000000E+00
215  2.1400000000000E+00  0.0000000000000E+00  0.0000000000000E+00
216  2.1500000000000E+00  0.0000000000000E+00  0.0000000000000E+00
217  2.1600000000000E+00  0.0000000000000E+00  0.0000000000000E+00
218  2.1700000000000E+00  0.0000000000000E+00  0.0000000000000E+00
219  2.1800000000000E+00  0.0000000000000E+00  0.0000000000000E+00
220  2.1900000000000E+00  0.0000000000000E+00  0.0000000000000E+00
221  2.2000000000000E+00  0.0000000000000E+00  0.0000000000000E+00
222  2.2100000000000E+00  0.0000000000000E+00  0.0000000000000E+00
223  2.2200000000000E+00  0.0000000000000E+00  0.0000000000000E+00
224  2.2300000000000E+00  0.0000000000000E+00  0.0000000000000E+00
225  2.2400000000000E+00  0.0000000000000E+00  0.0000000000000E+00
226  2.2500000000000E+00  0.0000000000000E+00  0.0000000000000E+00
227  2.2600000000000E+00  0.0000000000000E+00  0.0000000000000E+00
228  2.2700000000000E+00  0.0000000000000E+00  0.0000000000000E+00
229  2.2800000000000E+00  0.0000000000000E+00  0.0000000000000E+00
230  2.2900000000000E+00  0.0000000000000E+00  0.0000000000000E+00
231  2.3000000000000E+00  0.0000000000000E+00  0.0000000000000E+00
232  2.3100000000000E+00  0.0000000000000E+00  0.0000000000000E+00
233  2.3200000000000E+00  0.0000000000000E+00  0.0000000000000E+00
234  2.3300000000000E+00  0.0000000000000E+00  0.0000000000000E+00
235  2.3400000000000E+00  0.0000000000000E+00  0.0000000000000E+00
236  2.3500000000000E+00  0.0000000000000E+00  0.0000000000000E+00
237  2.3600000000000E+00  0.0000000000000E+00  0.0000000000000E+00
238  2.3700000000000E+00  0.0000000000000E+00  0.0000000000000E+00
239  2.3800000000000E+00  0.0000000000000E+00  0.0000000000000E+00
240  2.3900000000000E+00  0.0000000000000E+00  0.0000000000000E+00
241  2.4000000000000E+00  0.0000000000000E+00  0.0000000000000E+00
242  2.4100000000000E+00  0.0000000000000E+00  0.0000000000000E+00
243  2.4200000000000E+00  0.0000000000000E+00  0.0000000000000E+00
244  2.4300000000000E+00  0.0000000000000E+00  0.0000000000000E+00
245  2.4400000000000E+00  0.0000000000000E+00  0.0000000000000E+00
246  2.4500000000000E+00  0.0000000000000E+00  0.0000000000000E+00
247  2.4600000000000E+00  0.0000000000000E+00  0.0000000000000E+00
248  2.4700000000000E+00  0.0000000000000E+00  0.0000000000000E+00
249  2.4800000000000E+00  0.0000000000000E+00  0.0000000000000E+00
250  2.4900000000000E+00  0.0000000000000E+00  0.0000000000000E+00
251  2.5000000000000E+00  0.0000000000000E+00  0.0000000000000E+00
252  2.5100000000000E+00  0.0000000000000E+00  0.0000000000000E+00
253  2.5200000000000E+00  0.0000000000000E+00  0.0000000000000E+00
254  2.5300000000000E+00  0.0000000000000E+00  0.0000000000000E+00
255  2.5400000000000E+00  0.0000000000000E+00  0.0000000000000E+00
256  2.5500000000000E+00  0.0000000000000E+00  0.0000000000000E+00
257  2.5600000000000E+00  0.0000000000000E+00  0.0000000000000E+00
258  2.5700000000000E+00  0.0000000000000E+00  0.0000000000000E+00
259  2.5800000000000E+00  0.0000000000000E+00  0.0000000000000E+00
260  2.5900000000000E+00  0.0000000000000E+00  0.0000000000000E+00
261  2.6000000000000E+00  0.0000000000000E+00  0.0000000000000E+00
262  2.6100000000000E+00  0.0000000000000E+00  0.0000000000000E+00
263  2.6200000000000E+00  0.0000000000000E+00  0.0000000000000E+00
264  2.6300000000000E+00  0.0000000000000E+00  0.0000000000000E+00
265  2.6400000000000E+00  0.0000000000000E+00  0.0000000000000E+00
266  2.6500000000000E+00  0.0000000000000E+00  0.0000000000000E+00
267  2.6600000000000E+00  0.0000000000000E+00  0.0000000000000E+00
268  2.6700000000000E+00  0.0000000000000E+00  0.0000000000000E+00
269  2.6800000000000E+00  0.0000000000000E+00  0.0000000000000E+00
270  2.6900000000000E+00  0.0000000000000E+00  0.0000000000000E+00
271  2.7000000000000E+00  0.0000000000000E+00  0.0000000000000E+00
272  2.7100000000000E+00  0.0000000000000E+00  0.0000000000000E+00
273  2.7200000000000E+00  0.0000000000000E+00  0.0000000000000E+00
274  2.7300000000000E+00  0.0000000000000E+00  0.0000000000000E+00
275  2.7400000000000E+00  0.0000000000000E+00  0.0000000000000E+00
276  2.7500000000000E+00  0.0000000000000E+00  0.0000000000000E+00
277  2.7600000000000E+00  0.0000000000000E+00  0.0000000000000E+00
278  2.7700000000000E+00  0.0000000000000E+00  0.0000000000000E+00
279  2.7800000000000E+00  0.0000000000000E+00  0.0000000000000E+00
280  2.7900000000000E+00  0.0000000000000E+00  0.0000000000000E+00
281  2.8000000000000E+00  0.0000000000000E+00  0.0000000000000E+00
282  2.8100000000000E+00  0.0000000000000E+00  0.0000000000000E+00
283  2.8200000000000E+00  0.0000000000000E+00  0.0000000000000E+00
284  2.8300000000000E+00  0.0000000000000E+00  0.0000000000000E+00
285  2.8400000000000E+00  0.0000000000000E+00  0.0000000000000E+00
286  2.8500000000000E+00  0.0000000000000E+00  0.0000000000000E+00
287  2.8600000000000E+00  0.0000000000000E+00  0.0000000000000E+00
288  2.8700000000000E+00  0.0000000000000E+00  0.0000000000000E+00
289  2.8800000000000E+00  0.0000000000000E+00  0.0000000000000E+00
290  2.8900000000000E+00  0.0000000000000E+00  0.0000000000000E+00
291  2.9000000000000E+00  0.0000000000000E+00  0.0000000000000E+00
292  2.9100000000000E+00  0.0000000000000E+00  0.0000000000000E+00
293  2.9200000000000E+00  0.0000000000000E+00  0.0000000000000E+00
294  2.9300000000000E+00  0.0000000000000E+00  0.0000000000000E+00
295  2.9400000000000E+00  0.0000000000000E+00  0.0000000000000E+00
296  2.9500000000000E+00  0.0000000000000E+00  0.0000000000000E+00
297  2.9600000000000E+00  0.0000000000000E+00  0.0000000000000E+00
298  2.9700000000000E+00  0.0000000000000E+00  0.0000000000000E+00
299  2.9800000000000E+00  0.0000000000000E+00  0.0000000000000E+00
300  2.9900000000000E+00  0.0000000000000E+00  0.0000000000000E+00
301  3.0000000000000E+00  0.0000000000000E+00  0.0000000000000E+00
302  3.0100000000000E+00  0.0000000000000E+00  0.0000000000000E+00
303  3.0200000000000E+00  0.0000000000000E+00  0.0000000000000E+00
304  3.0300000000000E+00  0.0000000000000E+00  0.0000000000000E+00
305  3.0400000000000E+00  0.0000000000000E+00  0.0000000000000E+00
306  3.0500000000000E+00  0.0000000000000E+00  0.0000000000000E+00
307  3.0600000000000E+00  0.0000000000000E+00  0.0000000000000E+00
308  3.0700000000000E+00  0.0000000000000E+00  0.0000000000000E+00
309  3.0800000000000E+00  0.0000000000000E+00  0.0000000000000E+00
310  3.0900000000000E+00  0.0000000000000E+00  0.0000000000000E+00
311  3.1000000000000E+00  0.0000000000000E+00  0.0000000000000E+00
312  3.1100000000000E+00  0.0000000000000E+00  0.0000000000000E+00
313  3.1200000000000E+00  0.0000000000000E+00  0.0000000000000E+00
314  3.1300000000000E+00  0.0000000000000E+00  0.0000000000000E+00
315  3.1400000000000E+00  0.0000000000000E+00  0.0000000000000E+00
316  3.1500000000000E+00  0.0000000000000E+00  0.0000000000000E+00
317  3.1600000000000E+00  0.0000000000000E+00  0.0000000000000E+00
318  3.1700000000000E+00  0.0000000000000E+00  0.0000000000000E+00
319  3.1800000000000E+00  0.0000000000000E+00  0.0000000000000E+00
320  3.1900000000000E+00  0.0000000000000E+00  0.0000000000000E+00
321  3.2000000000000E+00  0.0000000000000E+00  0.0000000000000E+00
322  3.2100000000000E+00  0.0000000000000E+00  0.0000000000000E+00
323  3.2200000000000E+00  0.0000000000000E+00  0.0000000000000E+00
324  3.2300000000000E+00  0.0000000000000E+00  0.0000000000000E+00
325  3.2400000000000E+00  0.0000000000000E+00  0.0000000000000E+00
326  3.2500000000000E+00  0.0000000000000E+00  0.0000000000000E+00
327  3.2600000000000E+00  0.0000000000000E+00  0.0000000000000E+00
328  3.2700000000000E+00  0.0000000000000E+00  0.0000000000000E+00
329  3.2800000000000E+00  0.0000000000000E+00  0.0000000000000E+00
330  3.2900000000000E+00  0.0000000000000E+00  0.0000000000000E+00
331  3.3000000000000E+00  0.0000000000000E+00  0.0000000000000E+00
332  3.3100000000000E+00  0.0000000000000E+00  0.0000000000000E+00
333  3.3200000000000E+00  0.0000000000000E+00  0.0000000000000E+00
334  3.3300000000000E+00  0.0000000000000E+00  0.0000000000000E+00
335  3.3400000000000E+00  0.0000000000000E+00  0.0000000000000E+00
336  3.3500000000000E+00  0.0000000000000E+00  0.0000000000000E+00
337  3.3600000000000E+00  0.0000000000000E+00  0.0000000000000E+00
338  3.3700000000000E+00  0.0000000000000E+00  0.0000000000000E+00
339  3.3800000000000E+00  0.0000000000000E+00  0.0000000000000E+00
340  3.3900000000000E+00  0.0000000000000E+00  0.0000000000000E+00
341  3.4000000000000E+00  0.0000000000000E+00  0.0000000000000E+00
342  3.4100000000000E+00  0.0000000000000E+00  0.0000000000000E+00
343  3.4200000000000E+00  0.0000000000000E+00  0.0000000000000E+00
344  3.4300000000000E+00  0.0000000000000E+00  0.0000000000000E+00
345  3.4400000000000E+00  0.0000000000000E+00  0.0000000000000E+00
346  3.4500000000000E+00  0.0000000000000E+00  0.0000000000000E+00
347  3.4600000000000E+00  0.0000000000000E+00  0.0000000000000E+00
348  3.4700000000000E+00  0.0000000000000E+00  0.0000000000000E+00
349  3.4800000000000E+00  0.0000000000000E+00  0.0000000000000E+00
350  3.4900000000000E+00  0.0000000000000E+00  0.0000000000000E+00
351  3.5000000000000E+00  0.0000000000000E+00  0.0000000000000E+00
352  3.5100000000000E+00  0.0000000000000E+00  0.0000000000000E+00
353  3.5200000000000E+00  0.0000000000000E+00  0.0000000000000E+00
354  3.5300000000000E+00  0.0000000000000E+00  0.0000000000000E+00
355  3.5400000000000E+00  0.0000000000000E+00  0.0000000000000E+00
356  3.5500000000000E+00  0.0000000000000E+00  0.0000000000000E+00
357  3.5600000000000E+00  0.0000000000000E+00  0.0000000000000E+00
358  3.5700000000000E+00  0.0000000000000E+00  0.0000000000000E+00
359  3.5800000000000E+00  0.0000000000000E+00  0.0000000000000E+00
360  3.5900000000000E+00  0.0000000000000E+00  0.0000000000000E+00
361  3.6000000000000E+00  0.0000000000000E+00  0.0000000000000E+00
362  3.6100000000000E+00  0.0000000000000E+00  0.0000000000000E+00
363  3.6200000000000E+00  0.0000000000000E+00  0.0000000000000E+00
364  3.6300000000000E+00  0.0000000000000E+00  0.0000000000000E+00
365  3.6400000000000E+00  0.0000000000000E+00  0.0000000000000E+00
366  3.6500000000000E+00  0.0000000000000E+00  0.0000000000000E+00
367  3.6600000000000E+00  0.0000000000000E+00  0.0000000000000E+00
368  3.6700000000000E+00  0.0000000000000E+00  0.0000000000000E+00
369  3.6800000000000E+00  0.0000000000000E+00  0.0000000000000E+00
370  3.6900000000000E+00  0.0000000000000E+00  0.0000000000000E+00
371  3.7000000000000E+00  0.0000000000000E+00  0.0000000000000E+00
372  3.7100000000000E+00  0.0000000000000E+00  0.0000000000000E+00
373  3.7200000000000E+00  0.0000000000000E+00  0.0000000000000E+00
374  3.7300000000000E+00  0.0000000000000E+00  0.0000000000000E+00
375  3.7400000000000E+00  0.0000000000000E+00  0.0000000000000E+00
376  3.7500000000000E+00  0.0000000000000E+00  0.0000000000000E+00
377  3.7600000000000E+00  0.0000000000000E+00  0.0000000000000E+00
378  3.7700000000000E+00  0.0000000000000E+00  0.0000000000000E+00
379  3.7800000000000E+00  0.0000000000000E+00  0.0000000000000E+00
380  3.7900000000000E+00  0.0000000000000E+00  0.0000000000000E+00
381  3.8000000000000E+00  0.0000000000000E+00  0.0000000000000E+00
382  3.8100000000000E+00  0.0000000000000E+00  0.0000000000000E+00
383  3.8200000000000E+00  0.0000000000000E+00  0.0000000000000E+00
384  3.8300000000000E+00  0.0000000000000E+00  0.0000000000000E+00
385  3.8400000000000E+00  0.0000000000000E+00  0.0000000000000E+00
386  3.8500000000000E+00  0.0000000000000E+00  0.0000000000000E+00
387  3.8600000000000E+00  0.0000000000000E+00  0.0000000000000E+00
388  3.8700000000000E+00  0.0000000000000E+00  0.0000000000000E+00
389  3.8800000000000E+00  0.0000000000000E+00  0.0000000000000E+00
390  3.8900000000000E+00  0.0000000000000E+00  0.0000000000000E+00
391  3.9000000000000E+00  0.0000000000000E+00  0.0000000000000E+00
392  3.9100000000000E+00  0.0000000000000E+00  0.0000000000000E+00
393  3.9200000000000E+00  0.0000000000000E+00  0.0000000000000E+00
394  3.9300000000000E+00  0.0000000000000E+00  0.0000000000000E+00
395  3.9400000000000E+00  0.0000000000000E+00  0.0000000000000E+00
396  3.9500000000000E+00  0.0000000000000E+00  0.0000000000000E+00
397  3.9600000000000E+00  0.0000000000000E+00  0.0000000000000E+00
398  3.9700000000000E+00  0.0000000000000E+00  0.0000000000000E+00
399  3.9800000000000E+00  0.0000000000000E+00  0.0000000000000E+00
400  3.9900000000000E+00  0.0000000000000E+00  0.0000000000000E+00
401  4.0000000000000E+00  0.0000000000000E+00  0.0000000000000E+00
402  4.0100000000000E+00  0.0000000000000E+00  0.0000000000000E+00
403  4.0200000000000E+00  0.0000000000000E+00  0.0000000000000E+00
404  4.0300000000000E+00  0.0000000000000E+00  0.0000000000000E+00
405  4.0400000000000E+00  0.0000000000000E+00  0.0000000000000E+00
406  4.0500000000000E+00  0.0000000000000E+00  0.0000000000000E+00
407  4.0600000000000E+00  0.0000000000000E+00  0.0000000000000E+00
408  4.0700000000000E+00  0.0000000000000E+00  0.0000000000000E+00
409  4.0800000000000E+00  0.0000000000000E+00  0.0000000000000E+00
410  4.0900000000000E+00  0.0000000000000E+00  0.0000000000000E+00
411  4.1000000000000E+00  0.0000000000000E+00  0.0000000000000E+00
412  4.1100000000000E+00  0.0000000000000E+00  0.0000000000000E+00
413  4.1200000000000E+00  0.0000000000000E+00  0.0000000000000E+00
414  4.1300000000000E+00  0.0000000000000E+00  0.0000000000000E+00
415  4.1400000000000E+00  0.0000000000000E+00  0.0000000000000E+00
416  4.1500000000000E+00  0.0000000000000E+00  0.0000000000000E+00
417  4.1600000000000E+00  0.0000000000000E+00  0.0000000000000E+00
418  4.1700000000000E+00  0.0000000000000E+00  0.0000000000000E+00
419  4.1800000000000E+00  0.0000000000000E+00  0.0000000000000E+00
420  4.1900000000000E+00  0.0000000000000E+00  0.0000000000000E+00
421  4.2000000000000E+00  0.0000000000000E+00  0.0000000000000E+00
422  4.2100000000000E+00  0.0000000000000E+00  0.0000000000000E+00
423  4.2200000000000E+00  0.0000000000000E+00  0.0000000000000E+00
424  4.2300000000000E+00  0.0000000000000E+00  0.0000000000000E+00
425  4.2400000000000E+00  0.0000000000000E+00  0.0000000000000E+00
426  4.2500000000000E+00  0.0000000000000E+00  0.0000000000000E+00
427  4.2600000000000E+00  0.0000000000000E+00  0.0000000000000E+00
428  4.2700000000000E+00  0.0000000000000E+00  0.0000000000000E+00
429  4.2800000000000E+00  0.0000000000000E+00  0.0000000000000E+00
430  4.2900000000000E+00  0.0000000000000E+00  0.0000000000000E+00
431  4.3000000000000E+00  0.0000000000000E+00  0.0000000000000E+00
432  4.3100000000000E+00  0.0000000000000E+00  0.0000000000000E+00
433  4.3200000000000E+00  0.0000000000000E+00  0.0000000000000E+00
434  4.3300000000000E+00  0.0000000000000E+00  0.0000000000000E+00
435  4.3400000000000E+00  0.0000000000000E+00  0.0000000000000E+00
436  4.3500000000000E+00  0.0000000000000E+00  0.0000000000000E+00
437  4.3600000000000E+00  0.0000000000000E+00  0.0000000000000E+00
438  4.3700000000000E+00  0.0000000000000E+00  0.0000000000000E+00
439  4.3800000000000E+00  0.0000000000000E+00  0.0000000000000E+00
440  4.3900000000000E+00  0.0000000000000E+00  0.0000000000000E+00
441  4.4000000000000E+00  0.0000000000000E+00  0.0000000000000E+00
442  4.4100000000000E+00  0.0000000000000E+00  0.0000000000000E+00
443  4.4200000000000E+00  0.0000000000000E+00  0.0000000000000E+00