Kr    ONCVPSP-3.2.3.1  r_core=   1.75984   1.50704   1.80233
36.0000      8.0000      170504    zatom,zion,pspd
8      11   2     4   600     0    pspcod,pspxc,lmax,lloc,mmax,r2well
5.99000000  7.00000000  0.00000000    rchrg fchrg qchrg
2     2     2     0     0    nproj
1     1           extension_switch
0                         8.3612944215345E+00  8.2127787727363E-01
1  0.0000000000000E+00 -9.5124574883698E-11  4.0476910712073E-10
2  1.0000000000000E-02  3.9502445139011E-02 -1.7017965498355E-02
3  2.0000000000000E-02  7.8963149961535E-02 -3.3942982146318E-02
4  3.0000000000000E-02  1.1834056499134E-01 -5.0682994819328E-02
5  4.0000000000000E-02  1.5759352022409E-01 -6.7147725878453E-02
6  5.0000000000000E-02  1.9668140936634E-01 -8.3249539101796E-02
7  6.0000000000000E-02  2.3556436754594E-01 -9.8904274131521E-02
8  7.0000000000000E-02  2.7420344043075E-01 -1.1403204208761E-01
9  8.0000000000000E-02  3.1256074278699E-01 -1.2855797340417E-01
10  9.0000000000000E-02  3.5059960462624E-01 -1.4241290944279E-01
11  1.0000000000000E-01  3.8828470322778E-01 -1.5553403002498E-01
12  1.1000000000000E-01  4.2558217948039E-01 -1.6786540969653E-01
13  1.2000000000000E-01  4.6245973716320E-01 -1.7935849628437E-01
14  1.3000000000000E-01  4.9888672397642E-01 -1.8997250612350E-01
15  1.4000000000000E-01  5.3483419333851E-01 -1.9967473121032E-01
16  1.5000000000000E-01  5.7027494618405E-01 -2.0844075447022E-01
17  1.6000000000000E-01  6.0518355222440E-01 -2.1625457030262E-01
18  1.7000000000000E-01  6.3953635036838E-01 -2.2310860857658E-01
19  1.8000000000000E-01  6.7331142824088E-01 -2.2900366128343E-01
20  1.9000000000000E-01  7.0648858098045E-01 -2.3394871210154E-01
21  2.0000000000000E-01  7.3904924974070E-01 -2.3796067017920E-01
22  2.1000000000000E-01  7.7097644056141E-01 -2.4106401048664E-01
23  2.2000000000000E-01  8.0225462451170E-01 -2.4329032411522E-01
24  2.3000000000000E-01  8.3286962023705E-01 -2.4467778290146E-01
25  2.4000000000000E-01  8.6280846026111E-01 -2.4527052371467E-01
26  2.5000000000000E-01  8.9205924260082E-01 -2.4511795866108E-01
27  2.6000000000000E-01  9.2061096944624E-01 -2.4427401831295E-01
28  2.7000000000000E-01  9.4845337483318E-01 -2.4279633586169E-01
29  2.8000000000000E-01  9.7557674339452E-01 -2.4074538080875E-01
30  2.9000000000000E-01  1.0019717224141E+00 -2.3818355144095E-01
31  3.0000000000000E-01  1.0276291295224E+00 -2.3517423588008E-01
32  3.1000000000000E-01  1.0525397584664E+00 -2.3178085194407E-01
33  3.2000000000000E-01  1.0766941854526E+00 -2.2806587640372E-01
34  3.3000000000000E-01  1.1000825786042E+00 -2.2408987445968E-01
35  3.4000000000000E-01  1.1226945130916E+00 -2.1991054039757E-01
36  3.5000000000000E-01  1.1445187944792E+00 -2.1558176039926E-01
37  3.6000000000000E-01  1.1655432927985E+00 -2.1115270839825E-01
38  3.7000000000000E-01  1.1857547897875E+00 -2.0666698566237E-01
39  3.8000000000000E-01  1.2051388416458E+00 -2.0216181447187E-01
40  3.9000000000000E-01  1.2236796595371E+00 -1.9766729583516E-01
41  4.0000000000000E-01  1.2413600099234E+00 -1.9320574065233E-01
42  4.1000000000000E-01  1.2581611366493E+00 -1.8879108310156E-01
43  4.2000000000000E-01  1.2740627065017E+00 -1.8442838429097E-01
44  4.3000000000000E-01  1.2890427797568E+00 -1.8011343339477E-01
45  4.4000000000000E-01  1.3030778069937E+00 -1.7583245258435E-01
46  4.5000000000000E-01  1.3161426532023E+00 -1.7156191108078E-01
47  4.6000000000000E-01  1.3282106499491E+00 -1.6726845260368E-01
48  4.7000000000000E-01  1.3392536760815E+00 -1.6290893938148E-01
49  4.8000000000000E-01  1.3492422671657E+00 -1.5843061473204E-01
50  4.9000000000000E-01  1.3581457535531E+00 -1.5377138502839E-01
51  5.0000000000000E-01  1.3659324266672E+00 -1.4886022064563E-01
52  5.1000000000000E-01  1.3725697328021E+00 -1.4361767425306E-01
53  5.2000000000000E-01  1.3780244934150E+00 -1.3795651358116E-01
54  5.3000000000000E-01  1.3822631506002E+00 -1.3178246456981E-01
55  5.4000000000000E-01  1.3852520361360E+00 -1.2499505960336E-01
56  5.5000000000000E-01  1.3869576622159E+00 -1.1748858437288E-01
57  5.6000000000000E-01  1.3873470317024E+00 -1.0915311578577E-01
58  5.7000000000000E-01  1.3863879654920E+00 -9.9875642284395E-02
59  5.8000000000000E-01  1.3840494443397E+00 -8.9541256941677E-02
60  5.9000000000000E-01  1.3803019622805E+00 -7.8034412794538E-02
61  6.0000000000000E-01  1.3751178885919E+00 -6.5240229052063E-02
62  6.1000000000000E-01  1.3684718350778E+00 -5.1045836097993E-02
63  6.2000000000000E-01  1.3603410253168E+00 -3.5341746591950E-02
64  6.3000000000000E-01  1.3507056624074E+00 -1.8023239478092E-02
65  6.4000000000000E-01  1.3395492916712E+00  1.0082566658688E-03
66  6.5000000000000E-01  1.3268591547250E+00  2.1843794754679E-02
67  6.6000000000000E-01  1.3126265313276E+00  4.4565568727788E-02
68  6.7000000000000E-01  1.2968470654249E+00  6.9245615402444E-02
69  6.8000000000000E-01  1.2795210718792E+00  9.5944572407318E-02
70  6.9000000000000E-01  1.2606538204583E+00  1.2471050566650E-01
71  7.0000000000000E-01  1.2402557937845E+00  1.5557781947947E-01
72  7.1000000000000E-01  1.2183429161077E+00  1.8856626168154E-01
73  7.2000000000000E-01  1.1949367499541E+00  2.2368003568289E-01
74  7.3000000000000E-01  1.1700646579278E+00  2.6090703037004E-01
75  7.4000000000000E-01  1.1437599271938E+00  3.0021817792314E-01
76  7.5000000000000E-01  1.1160618544532E+00  3.4156694856102E-01
77  7.6000000000000E-01  1.0870157895234E+00  3.8488899007796E-01
78  7.7000000000000E-01  1.0566731359687E+00  4.3010191880189E-01
79  7.8000000000000E-01  1.0250913075725E+00  4.7710526728262E-01
80  7.9000000000000E-01  9.9233363980880E-01  5.2578059262926E-01
81  8.0000000000000E-01  9.5846925585102E-01  5.7599174796825E-01
82  8.1000000000000E-01  9.2357288704564E-01  6.2758531800134E-01
83  8.2000000000000E-01  8.8772464817600E-01  6.8039121811924E-01
84  8.3000000000000E-01  8.5100976824268E-01  7.3422345498748E-01
85  8.4000000000000E-01  8.1351827788705E-01  7.8888104497897E-01
86  8.5000000000000E-01  7.7534465498175E-01  8.4414908529926E-01
87  8.6000000000000E-01  7.3658743030050E-01  8.9979997114895E-01
88  8.7000000000000E-01  6.9734875555721E-01  9.5559475080950E-01
89  8.8000000000000E-01  6.5773393646684E-01  1.0112846091365E+00
90  8.9000000000000E-01  6.1785093382378E-01  1.0666124686145E+00
91  9.0000000000000E-01  5.7780983591536E-01  1.1213146958805E+00
92  9.1000000000000E-01  5.3772230588383E-01  1.1751229004765E+00
93  9.2000000000000E-01  4.9770100791797E-01  1.2277658115516E+00
94  9.3000000000000E-01  4.5785901639185E-01  1.2789712173180E+00
95  9.4000000000000E-01  4.1830921227030E-01  1.3284679512764E+00
96  9.5000000000000E-01  3.7916367126751E-01  1.3759879085851E+00
97  9.6000000000000E-01  3.4053304837310E-01  1.4212680754414E+00
98  9.7000000000000E-01  3.0252596344877E-01  1.4640525540067E+00
99  9.8000000000000E-01  2.6524839264644E-01  1.5040945652167E+00
100  9.9000000000000E-01  2.2880307040401E-01  1.5411584117993E+00
101  1.0000000000000E+00  1.9328890673924E-01  1.5750213839628E+00
102  1.0100000000000E+00  1.5880042448481E-01  1.6054755905198E+00
103  1.0200000000000E+00  1.2542722098443E-01  1.6323296986883E+00
104  1.0300000000000E+00  9.3253458610179E-02  1.6554105664407E+00
105  1.0400000000000E+00  6.2357388259892E-02  1.6745647520480E+00
106  1.0500000000000E+00  3.2810909746777E-02  1.6896598864334E+00
107  1.0600000000000E+00  4.6791727251639E-03  1.7005858949897E+00
108  1.0700000000000E+00 -2.1979778514545E-02  1.7072560567259E+00
109  1.0800000000000E+00 -4.7115313405386E-02  1.7096078899958E+00
110  1.0900000000000E+00 -7.0684473995403E-02  1.7076038554374E+00
111  1.1000000000000E+00 -9.2652182176379E-02  1.7012318684107E+00
112  1.1100000000000E+00 -1.1299139342270E-01  1.6905056146528E+00
113  1.1200000000000E+00 -1.3168319569912E-01  1.6754646647496E+00
114  1.1300000000000E+00 -1.4871685262975E-01  1.6561743847069E+00
115  1.1400000000000E+00 -1.6408979050142E-01  1.6327256417619E+00
116  1.1500000000000E+00 -1.7780752909823E-01  1.6052343062149E+00
117  1.1600000000000E+00 -1.8988355686194E-01  1.5738405519836E+00
118  1.1700000000000E+00 -2.0033915135737E-01  1.5387079604481E+00
119  1.1800000000000E+00 -2.0920314649429E-01  1.5000224339711E+00
120  1.1900000000000E+00 -2.1651164828786E-01  1.4579909267454E+00
121  1.2000000000000E+00 -2.2230770152857E-01  1.4128400028794E+00
122  1.2100000000000E+00 -2.2664091007848E-01  1.3648142329420E+00
123  1.2200000000000E+00 -2.2956701388302E-01  1.3141744416066E+00
124  1.2300000000000E+00 -2.3114742611966E-01  1.2611958202926E+00
125  1.2400000000000E+00 -2.3144873435743E-01  1.2061659204023E+00
126  1.2500000000000E+00 -2.3054216980481E-01  1.1493825434956E+00
127  1.2600000000000E+00 -2.2850304891242E-01  1.0911515454619E+00
128  1.2700000000000E+00 -2.2541019201600E-01  1.0317845732695E+00
129  1.2800000000000E+00 -2.2134532371895E-01  9.7159675287742E-01
130  1.2900000000000E+00 -2.1639245985861E-01  9.1090434744808E-01
131  1.3000000000000E+00 -2.1063728611338E-01  8.5002240567151E-01
132  1.3100000000000E+00 -2.0416653317671E-01  7.8926241945623E-01
133  1.3200000000000E+00 -1.9706735358835E-01  7.2893001087938E-01
134  1.3300000000000E+00 -1.8942670515241E-01  6.6932266744440E-01
135  1.3400000000000E+00 -1.8133074575356E-01  6.1072754424083E-01
136  1.3500000000000E+00 -1.7286424448056E-01  5.5341935192948E-01
137  1.3600000000000E+00 -1.6411001336025E-01  4.9765834687515E-01
138  1.3700000000000E+00 -1.5514836420010E-01  4.4368844059918E-01
139  1.3800000000000E+00 -1.4605659467320E-01  3.9173544412285E-01
140  1.3900000000000E+00 -1.3690850695911E-01  3.4200545939374E-01
141  1.4000000000000E+00 -1.2777396310089E-01  2.9468343347531E-01
142  1.4100000000000E+00 -1.1871847942438E-01  2.4993188365800E-01
143  1.4200000000000E+00 -1.0980286300751E-01  2.0788980433861E-01
144  1.4300000000000E+00 -1.0108289274230E-01  1.6867176462814E-01
145  1.4400000000000E+00 -9.2609045868234E-02  1.3236719889324E-01
146  1.4500000000000E+00 -8.4426272717722E-02  9.9039899998591E-02
147  1.4600000000000E+00 -7.6573818496735E-02  6.8727707704114E-02
148  1.4700000000000E+00 -6.9085098153592E-02  4.1442424606487E-02
149  1.4800000000000E+00 -6.1987605256890E-02  1.7169845918327E-02
150  1.4900000000000E+00 -5.5302917107841E-02 -4.1297354909130E-03
151  1.5000000000000E+00 -4.9046659816782E-02 -2.2521330270151E-02
152  1.5100000000000E+00 -4.3228527051570E-02 -3.8094861086821E-02
153  1.5200000000000E+00 -3.7852714224836E-02 -5.0962313076784E-02
154  1.5300000000000E+00 -3.2918350894238E-02 -6.1255084218990E-02
155  1.5400000000000E+00 -2.8420097593530E-02 -6.9120642658915E-02
156  1.5500000000000E+00 -2.4348615537456E-02 -7.4720035364445E-02
157  1.5600000000000E+00 -2.0690844880863E-02 -7.8226695322953E-02
158  1.5700000000000E+00 -1.7430419376138E-02 -7.9824460833649E-02
159  1.5800000000000E+00 -1.4548090922875E-02 -7.9705583759086E-02
160  1.5900000000000E+00 -1.2022166307125E-02 -7.8068718570898E-02
161  1.6000000000000E+00 -9.8289587859330E-03 -7.5116856588321E-02
162  1.6100000000000E+00 -7.9432474964005E-03 -7.1055241804674E-02
163  1.6200000000000E+00 -6.3387409011934E-03 -6.6089281091672E-02
164  1.6300000000000E+00 -4.9885391080309E-03 -6.0422470625782E-02
165  1.6400000000000E+00 -3.8655908280873E-03 -5.4254355764682E-02
166  1.6500000000000E+00 -2.9431394436782E-03 -4.7778547034194E-02
167  1.6600000000000E+00 -2.1951548916475E-03 -4.1180805601446E-02
168  1.6700000000000E+00 -1.5967453823045E-03 -3.4637222710037E-02
169  1.6800000000000E+00 -1.1245467288997E-03 -2.8312502088698E-02
170  1.6900000000000E+00 -7.5708302320779E-04 -2.2358370946277E-02
171  1.7000000000000E+00 -4.7505178911495E-04 -1.6913714169543E-02
172  1.7100000000000E+00 -2.6168834657164E-04 -1.2100873033485E-02
173  1.7200000000000E+00 -1.0384091912750E-04 -8.0044457840708E-03
174  1.7300000000000E+00  9.1764642723614E-06 -4.7123609651232E-03
175  1.7400000000000E+00  9.1488478955867E-05 -2.3946218904000E-03
176  1.7500000000000E+00  1.4904590714762E-04 -1.0918231078266E-03
177  1.7600000000000E+00  1.5340250807584E-04 -4.7036101832510E-04
178  1.7700000000000E+00  8.4689051433267E-05 -1.4931520293143E-04
179  1.7800000000000E+00  5.9821640794175E-06 -7.4997608289332E-06
180  1.7900000000000E+00 -1.7485086614975E-05  1.7801944845367E-05
181  1.8000000000000E+00 -4.6954401445426E-06  3.8559348964064E-06
182  1.8100000000000E+00  3.6819952725076E-06 -5.2698252876933E-06
183  1.8200000000000E+00  1.9192659302420E-06 -2.5720690575224E-06
184  1.8300000000000E+00 -3.5679497115136E-07  1.1062105241422E-06
185  1.8400000000000E+00 -3.0948921620902E-07  9.5954331131454E-07
186  1.8500000000000E+00  0.0000000000000E+00  0.0000000000000E+00
187  1.8600000000000E+00  0.0000000000000E+00  0.0000000000000E+00
188  1.8700000000000E+00  0.0000000000000E+00  0.0000000000000E+00
189  1.8800000000000E+00  0.0000000000000E+00  0.0000000000000E+00
190  1.8900000000000E+00  0.0000000000000E+00  0.0000000000000E+00
191  1.9000000000000E+00  0.0000000000000E+00  0.0000000000000E+00
192  1.9100000000000E+00  0.0000000000000E+00  0.0000000000000E+00
193  1.9200000000000E+00  0.0000000000000E+00  0.0000000000000E+00
194  1.9300000000000E+00  0.0000000000000E+00  0.0000000000000E+00
195  1.9400000000000E+00  0.0000000000000E+00  0.0000000000000E+00
196  1.9500000000000E+00  0.0000000000000E+00  0.0000000000000E+00
197  1.9600000000000E+00  0.0000000000000E+00  0.0000000000000E+00
198  1.9700000000000E+00  0.0000000000000E+00  0.0000000000000E+00
199  1.9800000000000E+00  0.0000000000000E+00  0.0000000000000E+00
200  1.9900000000000E+00  0.0000000000000E+00  0.0000000000000E+00
201  2.0000000000000E+00  0.0000000000000E+00  0.0000000000000E+00
202  2.0100000000000E+00  0.0000000000000E+00  0.0000000000000E+00
203  2.0200000000000E+00  0.0000000000000E+00  0.0000000000000E+00
204  2.0300000000000E+00  0.0000000000000E+00  0.0000000000000E+00
205  2.0400000000000E+00  0.0000000000000E+00  0.0000000000000E+00
206  2.0500000000000E+00  0.0000000000000E+00  0.0000000000000E+00
207  2.0600000000000E+00  0.0000000000000E+00  0.0000000000000E+00
208  2.0700000000000E+00  0.0000000000000E+00  0.0000000000000E+00
209  2.0800000000000E+00  0.0000000000000E+00  0.0000000000000E+00
210  2.0900000000000E+00  0.0000000000000E+00  0.0000000000000E+00
211  2.1000000000000E+00  0.0000000000000E+00  0.0000000000000E+00
212  2.1100000000000E+00  0.0000000000000E+00  0.0000000000000E+00
213  2.1200000000000E+00  0.0000000000000E+00  0.0000000000000E+00
214  2.1300000000000E+00  0.0000000000000E+00  0.0000000000000E+00
215  2.1400000000000E+00  0.0000000000000E+00  0.0000000000000E+00
216  2.1500000000000E+00  0.0000000000000E+00  0.0000000000000E+00
217  2.1600000000000E+00  0.0000000000000E+00  0.0000000000000E+00
218  2.1700000000000E+00  0.0000000000000E+00  0.0000000000000E+00
219  2.1800000000000E+00  0.0000000000000E+00  0.0000000000000E+00
220  2.1900000000000E+00  0.0000000000000E+00  0.0000000000000E+00
221  2.2000000000000E+00  0.0000000000000E+00  0.0000000000000E+00
222  2.2100000000000E+00  0.0000000000000E+00  0.0000000000000E+00
223  2.2200000000000E+00  0.0000000000000E+00  0.0000000000000E+00
224  2.2300000000000E+00  0.0000000000000E+00  0.0000000000000E+00
225  2.2400000000000E+00  0.0000000000000E+00  0.0000000000000E+00
226  2.2500000000000E+00  0.0000000000000E+00  0.0000000000000E+00
227  2.2600000000000E+00  0.0000000000000E+00  0.0000000000000E+00
228  2.2700000000000E+00  0.0000000000000E+00  0.0000000000000E+00
229  2.2800000000000E+00  0.0000000000000E+00  0.0000000000000E+00
230  2.2900000000000E+00  0.0000000000000E+00  0.0000000000000E+00
231  2.3000000000000E+00  0.0000000000000E+00  0.0000000000000E+00
232  2.3100000000000E+00  0.0000000000000E+00  0.0000000000000E+00
233  2.3200000000000E+00  0.0000000000000E+00  0.0000000000000E+00
234  2.3300000000000E+00  0.0000000000000E+00  0.0000000000000E+00
235  2.3400000000000E+00  0.0000000000000E+00  0.0000000000000E+00
236  2.3500000000000E+00  0.0000000000000E+00  0.0000000000000E+00
237  2.3600000000000E+00  0.0000000000000E+00  0.0000000000000E+00
238  2.3700000000000E+00  0.0000000000000E+00  0.0000000000000E+00
239  2.3800000000000E+00  0.0000000000000E+00  0.0000000000000E+00
240  2.3900000000000E+00  0.0000000000000E+00  0.0000000000000E+00
241  2.4000000000000E+00  0.0000000000000E+00  0.0000000000000E+00
242  2.4100000000000E+00  0.0000000000000E+00  0.0000000000000E+00
243  2.4200000000000E+00  0.0000000000000E+00  0.0000000000000E+00
244  2.4300000000000E+00  0.0000000000000E+00  0.0000000000000E+00
245  2.4400000000000E+00  0.0000000000000E+00  0.0000000000000E+00
246  2.4500000000000E+00  0.0000000000000E+00  0.0000000000000E+00
247  2.4600000000000E+00  0.0000000000000E+00  0.0000000000000E+00
248  2.4700000000000E+00  0.0000000000000E+00  0.0000000000000E+00
249  2.4800000000000E+00  0.0000000000000E+00  0.0000000000000E+00
250  2.4900000000000E+00  0.0000000000000E+00  0.0000000000000E+00
251  2.5000000000000E+00  0.0000000000000E+00  0.0000000000000E+00
252  2.5100000000000E+00  0.0000000000000E+00  0.0000000000000E+00
253  2.5200000000000E+00  0.0000000000000E+00  0.0000000000000E+00
254  2.5300000000000E+00  0.0000000000000E+00  0.0000000000000E+00
255  2.5400000000000E+00  0.0000000000000E+00  0.0000000000000E+00
256  2.5500000000000E+00  0.0000000000000E+00  0.0000000000000E+00
257  2.5600000000000E+00  0.0000000000000E+00  0.0000000000000E+00
258  2.5700000000000E+00  0.0000000000000E+00  0.0000000000000E+00
259  2.5800000000000E+00  0.0000000000000E+00  0.0000000000000E+00
260  2.5900000000000E+00  0.0000000000000E+00  0.0000000000000E+00
261  2.6000000000000E+00  0.0000000000000E+00  0.0000000000000E+00
262  2.6100000000000E+00  0.0000000000000E+00  0.0000000000000E+00
263  2.6200000000000E+00  0.0000000000000E+00  0.0000000000000E+00
264  2.6300000000000E+00  0.0000000000000E+00  0.0000000000000E+00
265  2.6400000000000E+00  0.0000000000000E+00  0.0000000000000E+00
266  2.6500000000000E+00  0.0000000000000E+00  0.0000000000000E+00
267  2.6600000000000E+00  0.0000000000000E+00  0.0000000000000E+00
268  2.6700000000000E+00  0.0000000000000E+00  0.0000000000000E+00
269  2.6800000000000E+00  0.0000000000000E+00  0.0000000000000E+00
270  2.6900000000000E+00  0.0000000000000E+00  0.0000000000000E+00
271  2.7000000000000E+00  0.0000000000000E+00  0.0000000000000E+00
272  2.7100000000000E+00  0.0000000000000E+00  0.0000000000000E+00
273  2.7200000000000E+00  0.0000000000000E+00  0.0000000000000E+00
274  2.7300000000000E+00  0.0000000000000E+00  0.0000000000000E+00
275  2.7400000000000E+00  0.0000000000000E+00  0.0000000000000E+00
276  2.7500000000000E+00  0.0000000000000E+00  0.0000000000000E+00
277  2.7600000000000E+00  0.0000000000000E+00  0.0000000000000E+00
278  2.7700000000000E+00  0.0000000000000E+00  0.0000000000000E+00
279  2.7800000000000E+00  0.0000000000000E+00  0.0000000000000E+00
280  2.7900000000000E+00  0.0000000000000E+00  0.0000000000000E+00
281  2.8000000000000E+00  0.0000000000000E+00  0.0000000000000E+00
282  2.8100000000000E+00  0.0000000000000E+00  0.0000000000000E+00
283  2.8200000000000E+00  0.0000000000000E+00  0.0000000000000E+00
284  2.8300000000000E+00  0.0000000000000E+00  0.0000000000000E+00
285  2.8400000000000E+00  0.0000000000000E+00  0.0000000000000E+00
286  2.8500000000000E+00  0.0000000000000E+00  0.0000000000000E+00
287  2.8600000000000E+00  0.0000000000000E+00  0.0000000000000E+00
288  2.8700000000000E+00  0.0000000000000E+00  0.0000000000000E+00
289  2.8800000000000E+00  0.0000000000000E+00  0.0000000000000E+00
290  2.8900000000000E+00  0.0000000000000E+00  0.0000000000000E+00
291  2.9000000000000E+00  0.0000000000000E+00  0.0000000000000E+00
292  2.9100000000000E+00  0.0000000000000E+00  0.0000000000000E+00
293  2.9200000000000E+00  0.0000000000000E+00  0.0000000000000E+00
294  2.9300000000000E+00  0.0000000000000E+00  0.0000000000000E+00
295  2.9400000000000E+00  0.0000000000000E+00  0.0000000000000E+00
296  2.9500000000000E+00  0.0000000000000E+00  0.0000000000000E+00
297  2.9600000000000E+00  0.0000000000000E+00  0.0000000000000E+00
298  2.9700000000000E+00  0.0000000000000E+00  0.0000000000000E+00
299  2.9800000000000E+00  0.0000000000000E+00  0.0000000000000E+00
300  2.9900000000000E+00  0.0000000000000E+00  0.0000000000000E+00
301  3.0000000000000E+00  0.0000000000000E+00  0.0000000000000E+00
302  3.0100000000000E+00  0.0000000000000E+00  0.0000000000000E+00
303  3.0200000000000E+00  0.0000000000000E+00  0.0000000000000E+00
304  3.0300000000000E+00  0.0000000000000E+00  0.0000000000000E+00
305  3.0400000000000E+00  0.0000000000000E+00  0.0000000000000E+00
306  3.0500000000000E+00  0.0000000000000E+00  0.0000000000000E+00
307  3.0600000000000E+00  0.0000000000000E+00  0.0000000000000E+00
308  3.0700000000000E+00  0.0000000000000E+00  0.0000000000000E+00
309  3.0800000000000E+00  0.0000000000000E+00  0.0000000000000E+00
310  3.0900000000000E+00  0.0000000000000E+00  0.0000000000000E+00
311  3.1000000000000E+00  0.0000000000000E+00  0.0000000000000E+00
312  3.1100000000000E+00  0.0000000000000E+00  0.0000000000000E+00
313  3.1200000000000E+00  0.0000000000000E+00  0.0000000000000E+00
314  3.1300000000000E+00  0.0000000000000E+00  0.0000000000000E+00
315  3.1400000000000E+00  0.0000000000000E+00  0.0000000000000E+00
316  3.1500000000000E+00  0.0000000000000E+00  0.0000000000000E+00
317  3.1600000000000E+00  0.0000000000000E+00  0.0000000000000E+00
318  3.1700000000000E+00  0.0000000000000E+00  0.0000000000000E+00
319  3.1800000000000E+00  0.0000000000000E+00  0.0000000000000E+00
320  3.1900000000000E+00  0.0000000000000E+00  0.0000000000000E+00
321  3.2000000000000E+00  0.0000000000000E+00  0.0000000000000E+00
322  3.2100000000000E+00  0.0000000000000E+00  0.0000000000000E+00
323  3.2200000000000E+00  0.0000000000000E+00  0.0000000000000E+00
324  3.2300000000000E+00  0.0000000000000E+00  0.0000000000000E+00
325  3.2400000000000E+00  0.0000000000000E+00  0.0000000000000E+00
326  3.2500000000000E+00  0.0000000000000E+00  0.0000000000000E+00
327  3.2600000000000E+00  0.0000000000000E+00  0.0000000000000E+00
328  3.2700000000000E+00  0.0000000000000E+00  0.0000000000000E+00
329  3.2800000000000E+00  0.0000000000000E+00  0.0000000000000E+00
330  3.2900000000000E+00  0.0000000000000E+00  0.0000000000000E+00
331  3.3000000000000E+00  0.0000000000000E+00  0.0000000000000E+00
332  3.3100000000000E+00  0.0000000000000E+00  0.0000000000000E+00
333  3.3200000000000E+00  0.0000000000000E+00  0.0000000000000E+00
334  3.3300000000000E+00  0.0000000000000E+00  0.0000000000000E+00
335  3.3400000000000E+00  0.0000000000000E+00  0.0000000000000E+00
336  3.3500000000000E+00  0.0000000000000E+00  0.0000000000000E+00
337  3.3600000000000E+00  0.0000000000000E+00  0.0000000000000E+00
338  3.3700000000000E+00  0.0000000000000E+00  0.0000000000000E+00
339  3.3800000000000E+00  0.0000000000000E+00  0.0000000000000E+00
340  3.3900000000000E+00  0.0000000000000E+00  0.0000000000000E+00
341  3.4000000000000E+00  0.0000000000000E+00  0.0000000000000E+00
342  3.4100000000000E+00  0.0000000000000E+00  0.0000000000000E+00
343  3.4200000000000E+00  0.0000000000000E+00  0.0000000000000E+00
344  3.4300000000000E+00  0.0000000000000E+00  0.0000000000000E+00
345  3.4400000000000E+00  0.0000000000000E+00  0.0000000000000E+00
346  3.4500000000000E+00  0.0000000000000E+00  0.0000000000000E+00
347  3.4600000000000E+00  0.0000000000000E+00  0.0000000000000E+00
348  3.4700000000000E+00  0.0000000000000E+00  0.0000000000000E+00
349  3.4800000000000E+00  0.0000000000000E+00  0.0000000000000E+00
350  3.4900000000000E+00  0.0000000000000E+00  0.0000000000000E+00
351  3.5000000000000E+00  0.0000000000000E+00  0.0000000000000E+00
352  3.5100000000000E+00  0.0000000000000E+00  0.0000000000000E+00
353  3.5200000000000E+00  0.0000000000000E+00  0.0000000000000E+00
354  3.5300000000000E+00  0.0000000000000E+00  0.0000000000000E+00
355  3.5400000000000E+00  0.0000000000000E+00  0.0000000000000E+00
356  3.5500000000000E+00  0.0000000000000E+00  0.0000000000000E+00
357  3.5600000000000E+00  0.0000000000000E+00  0.0000000000000E+00
358  3.5700000000000E+00  0.0000000000000E+00  0.0000000000000E+00
359  3.5800000000000E+00  0.0000000000000E+00  0.0000000000000E+00
360  3.5900000000000E+00  0.0000000000000E+00  0.0000000000000E+00
361  3.6000000000000E+00  0.0000000000000E+00  0.0000000000000E+00
362  3.6100000000000E+00  0.0000000000000E+00  0.0000000000000E+00
363  3.6200000000000E+00  0.0000000000000E+00  0.0000000000000E+00
364  3.6300000000000E+00  0.0000000000000E+00  0.0000000000000E+00
365  3.6400000000000E+00  0.0000000000000E+00  0.0000000000000E+00
366  3.6500000000000E+00  0.0000000000000E+00  0.0000000000000E+00
367  3.6600000000000E+00  0.0000000000000E+00  0.0000000000000E+00
368  3.6700000000000E+00  0.0000000000000E+00  0.0000000000000E+00
369  3.6800000000000E+00  0.0000000000000E+00  0.0000000000000E+00
370  3.6900000000000E+00  0.0000000000000E+00  0.0000000000000E+00
371  3.7000000000000E+00  0.0000000000000E+00  0.0000000000000E+00
372  3.7100000000000E+00  0.0000000000000E+00  0.0000000000000E+00
373  3.7200000000000E+00  0.0000000000000E+00  0.0000000000000E+00
374  3.7300000000000E+00  0.0000000000000E+00  0.0000000000000E+00
375  3.7400000000000E+00  0.0000000000000E+00  0.0000000000000E+00
376  3.7500000000000E+00  0.0000000000000E+00  0.0000000000000E+00
377  3.7600000000000E+00  0.0000000000000E+00  0.0000000000000E+00
378  3.7700000000000E+00  0.0000000000000E+00  0.0000000000000E+00
379  3.7800000000000E+00  0.0000000000000E+00  0.0000000000000E+00
380  3.7900000000000E+00  0.0000000000000E+00  0.0000000000000E+00
381  3.8000000000000E+00  0.0000000000000E+00  0.0000000000000E+00
382  3.8100000000000E+00  0.0000000000000E+00  0.0000000000000E+00
383  3.8200000000000E+00  0.0000000000000E+00  0.0000000000000E+00
384  3.8300000000000E+00  0.0000000000000E+00  0.0000000000000E+00
385  3.8400000000000E+00  0.0000000000000E+00  0.0000000000000E+00
386  3.8500000000000E+00  0.0000000000000E+00  0.0000000000000E+00
387  3.8600000000000E+00  0.0000000000000E+00  0.0000000000000E+00
388  3.8700000000000E+00  0.0000000000000E+00  0.0000000000000E+00
389  3.8800000000000E+00  0.0000000000000E+00  0.0000000000000E+00
390  3.8900000000000E+00  0.0000000000000E+00  0.0000000000000E+00
391  3.9000000000000E+00  0.0000000000000E+00  0.0000000000000E+00
392  3.9100000000000E+00  0.0000000000000E+00  0.0000000000000E+00
393  3.9200000000000E+00  0.0000000000000E+00  0.0000000000000E+00
394  3.9300000000000E+00  0.0000000000000E+00  0.0000000000000E+00
395  3.9400000000000E+00  0.0000000000000E+00  0.0000000000000E+00
396  3.9500000000000E+00  0.0000000000000E+00  0.0000000000000E+00
397  3.9600000000000E+00  0.0000000000000E+00  0.0000000000000E+00
398  3.9700000000000E+00  0.0000000000000E+00  0.0000000000000E+00
399  3.9800000000000E+00  0.0000000000000E+00  0.0000000000000E+00
400  3.9900000000000E+00  0.0000000000000E+00  0.0000000000000E+00
401  4.0000000000000E+00  0.0000000000000E+00  0.0000000000000E+00
402  4.0100000000000E+00  0.0000000000000E+00  0.0000000000000E+00
403  4.0200000000000E+00  0.0000000000000E+00  0.0000000000000E+00
404  4.0300000000000E+00  0.0000000000000E+00  0.0000000000000E+00
405  4.0400000000000E+00  0.0000000000000E+00  0.0000000000000E+00
406  4.0500000000000E+00  0.0000000000000E+00  0.0000000000000E+00
407  4.0600000000000E+00  0.0000000000000E+00  0.0000000000000E+00
408  4.0700000000000E+00  0.0000000000000E+00  0.0000000000000E+00
409  4.0800000000000E+00  0.0000000000000E+00  0.0000000000000E+00
410  4.0900000000000E+00  0.0000000000000E+00  0.0000000000000E+00
411  4.1000000000000E+00  0.0000000000000E+00  0.0000000000000E+00
412  4.1100000000000E+00  0.0000000000000E+00  0.0000000000000E+00
413  4.1200000000000E+00  0.0000000000000E+00  0.0000000000000E+00
414  4.1300000000000E+00  0.0000000000000E+00  0.0000000000000E+00
415  4.1400000000000E+00  0.0000000000000E+00  0.0000000000000E+00
416  4.1500000000000E+00  0.0000000000000E+00  0.0000000000000E+00
417  4.1600000000000E+00  0.0000000000000E+00  0.0000000000000E+00
418  4.1700000000000E+00  0.0000000000000E+00  0.0000000000000E+00
419  4.1800000000000E+00  0.0000000000000E+00  0.0000000000000E+00
420  4.1900000000000E+00  0.0000000000000E+00  0.0000000000000E+00
421  4.2000000000000E+00  0.0000000000000E+00  0.0000000000000E+00
422  4.2100000000000E+00  0.0000000000000E+00  0.0000000000000E+00
423  4.2200000000000E+00  0.0000000000000E+00  0.0000000000000E+00
424  4.2300000000000E+00  0.0000000000000E+00  0.0000000000000E+00
425  4.2400000000000E+00  0.0000000000000E+00  0.0000000000000E+00
426  4.2500000000000E+00  0.0000000000000E+00  0.0000000000000E+00
427  4.2600000000000E+00  0.0000000000000E+00  0.0000000000000E+00
428  4.2700000000000E+00  0.0000000000000E+00  0.0000000000000E+00
429  4.2800000000000E+00  0.0000000000000E+00  0.0000000000000E+00
430  4.2900000000000E+00  0.0000000000000E+00  0.0000000000000E+00
431  4.3000000000000E+00  0.0000000000000E+00  0.0000000000000E+00
432  4.3100000000000E+00  0.0000000000000E+00  0.0000000000000E+00
433  4.3200000000000E+00  0.0000000000000E+00  0.0000000000000E+00
434  4.3300000000000E+00  0.0000000000000E+00  0.0000000000000E+00
435  4.3400000000000E+00  0.0000000000000E+00  0.0000000000000E+00
436  4.3500000000000E+00  0.0000000000000E+00  0.0000000000000E+00
437  4.3600000000000E+00  0.0000000000000E+00  0.0000000000000E+00
438  4.3700000000000E+00  0.0000000000000E+00  0.0000000000000E+00
439  4.3800000000000E+00  0.0000000000000E+00  0.0000000000000E+00
440  4.3900000000000E+00  0.0000000000000E+00  0.0000000000000E+00
441  4.4000000000000E+00  0.0000000000000E+00  0.0000000000000E+00
442  4.4100000000000E+00  0.0000000000000E+00  0.0000000000000E+00
443  4.4200000000000E+00  0.0000000000000E+00  0.0000000000000E+00