Sr    ONCVPSP-3.2.3.1  r_core=   1.51547   1.31335   1.51547
38.0000     10.0000      170703    zatom,zion,pspd
8      11   2     4   600     0    pspcod,pspxc,lmax,lloc,mmax,r2well
5.99000000  6.00000000  0.00000000    rchrg fchrg qchrg
2     2     2     0     0    nproj
1     1           extension_switch
0                         9.8693882243524E+00  8.9510976408968E-01
1  0.0000000000000E+00  1.4922180158194E-10 -7.5385801767691E-10
2  1.0000000000000E-02  4.0592326543295E-02 -1.4462874701731E-02
3  2.0000000000000E-02  8.1176520388258E-02 -2.8971966445701E-02
4  3.0000000000000E-02  1.2174414686172E-01 -4.3572336157570E-02
5  4.0000000000000E-02  1.6228617080695E-01 -5.8306747864848E-02
6  5.0000000000000E-02  2.0279266496885E-01 -7.3214558390920E-02
7  6.0000000000000E-02  2.4325252862435E-01 -8.8330652278668E-02
8  7.0000000000000E-02  2.8365321969596E-01 -1.0368443612408E-01
9  8.0000000000000E-02  3.2398050343734E-01 -1.1929890574643E-01
10  9.0000000000000E-02  3.6421822059623E-01 -1.3518979869728E-01
11  1.0000000000000E-01  4.0434807774527E-01 -1.5136484352737E-01
12  1.1000000000000E-01  4.4434946222662E-01 -1.6782311600134E-01
13  1.2000000000000E-01  4.8419928388503E-01 -1.8455451109193E-01
14  1.3000000000000E-01  5.2387184546966E-01 -2.0153933811293E-01
15  1.4000000000000E-01  5.6333874327036E-01 -2.1874804478483E-01
16  1.5000000000000E-01  6.0256879922308E-01 -2.3614107438530E-01
17  1.6000000000000E-01  6.4152802537577E-01 -2.5366885844272E-01
18  1.7000000000000E-01  6.8017962125393E-01 -2.7127194570304E-01
19  1.8000000000000E-01  7.1848400430862E-01 -2.8888126636261E-01
20  1.9000000000000E-01  7.5639887327262E-01 -3.0641852883296E-01
21  2.0000000000000E-01  7.9387930389758E-01 -3.2379674461072E-01
22  2.1000000000000E-01  8.3087787619932E-01 -3.4092087518770E-01
23  2.2000000000000E-01  8.6734483200534E-01 -3.5768859337483E-01
24  2.3000000000000E-01  9.0322826128019E-01 -3.7399114994786E-01
25  2.4000000000000E-01  9.3847431540621E-01 -3.8971433517279E-01
26  2.5000000000000E-01  9.7302744532083E-01 -4.0473952355151E-01
27  2.6000000000000E-01  1.0068306621616E+00 -4.1894478905961E-01
28  2.7000000000000E-01  1.0398258178483E+00 -4.3220607724262E-01
29  2.8000000000000E-01  1.0719539028414E+00 -4.4439841980594E-01
30  2.9000000000000E-01  1.1031553581579E+00 -4.5539717678849E-01
31  3.0000000000000E-01  1.1333703986042E+00 -4.6507929105566E-01
32  3.1000000000000E-01  1.1625393440978E+00 -4.7332453969211E-01
33  3.2000000000000E-01  1.1906029559001E+00 -4.8001676691874E-01
34  3.3000000000000E-01  1.2175027745720E+00 -4.8504508340274E-01
35  3.4000000000000E-01  1.2431814564849E+00 -4.8830501727112E-01
36  3.5000000000000E-01  1.2675831057844E+00 -4.8969960277340E-01
37  3.6000000000000E-01  1.2906535987984E+00 -4.8914039335748E-01
38  3.7000000000000E-01  1.3123408980120E+00 -4.8654838691704E-01
39  3.8000000000000E-01  1.3325953528960E+00 -4.8185485212428E-01
40  3.9000000000000E-01  1.3513699850651E+00 -4.7500204606567E-01
41  4.0000000000000E-01  1.3686207554656E+00 -4.6594381483184E-01
42  4.1000000000000E-01  1.3843068115316E+00 -4.5464607025942E-01
43  4.2000000000000E-01  1.3983907125179E+00 -4.4108713766034E-01
44  4.3000000000000E-01  1.4108386314963E+00 -4.2525797108322E-01
45  4.4000000000000E-01  1.4216205327982E+00 -4.0716223440754E-01
46  4.5000000000000E-01  1.4307103239924E+00 -3.8681624835236E-01
47  4.6000000000000E-01  1.4380859817956E+00 -3.6424880526276E-01
48  4.7000000000000E-01  1.4437296516257E+00 -3.3950085529521E-01
49  4.8000000000000E-01  1.4476277208157E+00 -3.1262506933280E-01
50  4.9000000000000E-01  1.4497708658087E+00 -2.8368528560118E-01
51  5.0000000000000E-01  1.4501540739446E+00 -2.5275584850040E-01
52  5.1000000000000E-01  1.4487766407245E+00 -2.1992084959850E-01
53  5.2000000000000E-01  1.4456421436970E+00 -1.8527328202560E-01
54  5.3000000000000E-01  1.4407583943458E+00 -1.4891412064675E-01
55  5.4000000000000E-01  1.4341373695669E+00 -1.1095134135963E-01
56  5.5000000000000E-01  1.4257951245102E+00 -7.1498893645116E-02
57  5.6000000000000E-01  1.4157516887086E+00 -3.0675641082470E-02
58  5.7000000000000E-01  1.4040309475405E+00  1.1395715082660E-02
59  5.8000000000000E-01  1.3906605111599E+00  5.4589714066956E-02
60  5.9000000000000E-01  1.3756715730783E+00  9.8779200181949E-02
61  6.0000000000000E-01  1.3590987606024E+00  1.4383635905084E-01
62  6.1000000000000E-01  1.3409799793121E+00  1.8963371098646E-01
63  6.2000000000000E-01  1.3213562537143E+00  2.3604504780802E-01
64  6.3000000000000E-01  1.3002715661187E+00  2.8294630028632E-01
65  6.4000000000000E-01  1.2777726956671E+00  3.3021632450930E-01
66  6.5000000000000E-01  1.2539090592987E+00  3.7773759673659E-01
67  6.6000000000000E-01  1.2287325562572E+00  4.2539680776067E-01
68  6.7000000000000E-01  1.2022974175473E+00  4.7308534937877E-01
69  6.8000000000000E-01  1.1746600615249E+00  5.2069968728247E-01
70  6.9000000000000E-01  1.1458789565639E+00  5.6814161649102E-01
71  7.0000000000000E-01  1.1160144914908E+00  6.1531839733027E-01
72  7.1000000000000E-01  1.0851288542098E+00  6.6214277189373E-01
73  7.2000000000000E-01  1.0532859186756E+00  7.0853286286784E-01
74  7.3000000000000E-01  1.0205511400945E+00  7.5441195855670E-01
75  7.4000000000000E-01  9.8699145796900E-01  7.9970818984228E-01
76  7.5000000000000E-01  9.5267520633721E-01  8.4435410666396E-01
77  7.6000000000000E-01  9.1767203031344E-01  8.8828616335264E-01
78  7.7000000000000E-01  8.8205280779875E-01  9.3144412379054E-01
79  7.8000000000000E-01  8.4588957502223E-01  9.7377039885395E-01
80  7.9000000000000E-01  8.0925545438344E-01  1.0152093299246E+00
81  8.0000000000000E-01  7.7222458290813E-01  1.0557064333818E+00
82  8.1000000000000E-01  7.3487203949988E-01  1.0952076219134E+00
83  8.2000000000000E-01  6.9727376907609E-01  1.1336584191774E+00
84  8.3000000000000E-01  6.5950650161800E-01  1.1710031848038E+00
85  8.4000000000000E-01  6.2164766414408E-01  1.2071843669274E+00
86  8.5000000000000E-01  5.8377528363500E-01  1.2421417993891E+00
87  8.6000000000000E-01  5.4596787899712E-01  1.2758120604238E+00
88  8.7000000000000E-01  5.0830434025064E-01  1.3081279090703E+00
89  8.8000000000000E-01  4.7086379326680E-01  1.3390178146958E+00
90  8.9000000000000E-01  4.3372544855580E-01  1.3684055939345E+00
91  9.0000000000000E-01  3.9696843282106E-01  1.3962101679949E+00
92  9.1000000000000E-01  3.6067160224365E-01  1.4223454517283E+00
93  9.2000000000000E-01  3.2491333674112E-01  1.4467203840689E+00
94  9.3000000000000E-01  2.8977131475370E-01  1.4692391074873E+00
95  9.4000000000000E-01  2.5532226844315E-01  1.4898013019638E+00
96  9.5000000000000E-01  2.2164171954457E-01  1.5083026767076E+00
97  9.6000000000000E-01  1.8880369647953E-01  1.5246356204613E+00
98  9.7000000000000E-01  1.5688043371541E-01  1.5386900087828E+00
99  9.8000000000000E-01  1.2594205474746E-01  1.5503541641407E+00
100  9.9000000000000E-01  9.6056240458667E-02  1.5595159621632E+00
101  1.0000000000000E+00  6.7287884994494E-02  1.5660640748601E+00
102  1.0100000000000E+00  3.9698741656153E-02  1.5698893391819E+00
103  1.0200000000000E+00  1.3347061666996E-02  1.5708862369221E+00
104  1.0300000000000E+00 -1.1712771000048E-02  1.5689544696881E+00
105  1.0400000000000E+00 -3.5430605262183E-02  1.5640006107029E+00
106  1.0500000000000E+00 -5.7760885268590E-02  1.5559398131276E+00
107  1.0600000000000E+00 -7.8663005468200E-02  1.5446975530500E+00
108  1.0700000000000E+00 -9.8101654229960E-02  1.5302113837971E+00
109  1.0800000000000E+00 -1.1604714169970E-01  1.5124326770531E+00
110  1.0900000000000E+00 -1.3247570748649E-01  1.4913283254473E+00
111  1.1000000000000E+00 -1.4736980371670E-01  1.4668823805923E+00
112  1.1100000000000E+00 -1.6071834901113E-01  1.4390976003723E+00
113  1.1200000000000E+00 -1.7251694900673E-01  1.4079968793513E+00
114  1.1300000000000E+00 -1.8276807916121E-01  1.3736245365754E+00
115  1.1400000000000E+00 -1.9148122573128E-01  1.3360474356572E+00
116  1.1500000000000E+00 -1.9867298107401E-01  1.2953559132512E+00
117  1.1600000000000E+00 -2.0436708970016E-01  1.2516644934229E+00
118  1.1700000000000E+00 -2.0859444181008E-01  1.2051123669551E+00
119  1.1800000000000E+00 -2.1139301141322E-01  1.1558636165605E+00
120  1.1900000000000E+00 -2.1280773659706E-01  1.1041071714679E+00
121  1.2000000000000E+00 -2.1289034001589E-01  1.0500564776056E+00
122  1.2100000000000E+00 -2.1169908792949E-01  9.9394887100919E-01
123  1.2200000000000E+00 -2.0929848693568E-01  9.3604464658223E-01
124  1.2300000000000E+00 -2.0575891798335E-01  8.7662581684188E-01
125  1.2400000000000E+00 -2.0115620768677E-01  8.1599455770480E-01
126  1.2500000000000E+00 -1.9557113764467E-01  7.5447134221813E-01
127  1.2600000000000E+00 -1.8908889316095E-01  6.9239276710017E-01
128  1.2700000000000E+00 -1.8179845265873E-01  6.3010907555097E-01
129  1.2800000000000E+00 -1.7379192269143E-01  5.6798140600373E-01
130  1.2900000000000E+00 -1.6516380965556E-01  5.0637869418596E-01
131  1.3000000000000E+00 -1.5601028996295E-01  4.4567466229134E-01
132  1.3100000000000E+00 -1.4642830281419E-01  3.8624362314416E-01
133  1.3200000000000E+00 -1.3651475395473E-01  3.2845715482086E-01
134  1.3300000000000E+00 -1.2636621717172E-01  2.7268472310406E-01
135  1.3400000000000E+00 -1.1607871774192E-01  2.1929428048329E-01
136  1.3500000000000E+00 -1.0574760347912E-01  1.6865312765557E-01
137  1.3600000000000E+00 -9.5466832700905E-02  1.2112412808011E-01
138  1.3700000000000E+00 -8.5328356201025E-02  7.7062598735000E-02
139  1.3800000000000E+00 -7.5421517619507E-02  3.6813376158979E-02
140  1.3900000000000E+00 -6.5832445168886E-02  7.0775079546823E-04
141  1.4000000000000E+00 -5.6643457012270E-02 -3.0939536027557E-02
142  1.4100000000000E+00 -4.7932483163848E-02 -5.7833225580369E-02
143  1.4200000000000E+00 -3.9772510058715E-02 -7.9700368811073E-02
144  1.4300000000000E+00 -3.2231052338435E-02 -9.6293021294195E-02
145  1.4400000000000E+00 -2.5369657546817E-02 -1.0739077323581E-01
146  1.4500000000000E+00 -1.9243447564130E-02 -1.1280309256167E-01
147  1.4600000000000E+00 -1.3900701860823E-02 -1.1237145183301E-01
148  1.4700000000000E+00 -9.3854374284854E-03 -1.0581343505551E-01
149  1.4800000000000E+00 -5.7216096281040E-03 -9.3564248185360E-02
150  1.4900000000000E+00 -2.9270619135683E-03 -7.6251836697589E-02
151  1.5000000000000E+00 -1.0905466261302E-03 -4.8408121961444E-02
152  1.5100000000000E+00 -1.7213603850976E-04 -1.4027718309409E-02
153  1.5200000000000E+00  9.3405255136963E-05  4.4118425774634E-03
154  1.5300000000000E+00  3.8382605849280E-05  2.4893214007709E-03
155  1.5400000000000E+00 -2.5492514127192E-05 -1.1738504952865E-03
156  1.5500000000000E+00 -7.9847247763577E-06 -3.8487143633091E-04
157  1.5600000000000E+00  4.9792601550274E-06  1.5822228742989E-04
158  1.5700000000000E+00  5.3940650828098E-07  1.7314599110004E-05
159  1.5800000000000E+00 -9.5584722262432E-08  1.7460395178448E-07
160  1.5900000000000E+00  0.0000000000000E+00  0.0000000000000E+00
161  1.6000000000000E+00  0.0000000000000E+00  0.0000000000000E+00
162  1.6100000000000E+00  0.0000000000000E+00  0.0000000000000E+00
163  1.6200000000000E+00  0.0000000000000E+00  0.0000000000000E+00
164  1.6300000000000E+00  0.0000000000000E+00  0.0000000000000E+00
165  1.6400000000000E+00  0.0000000000000E+00  0.0000000000000E+00
166  1.6500000000000E+00  0.0000000000000E+00  0.0000000000000E+00
167  1.6600000000000E+00  0.0000000000000E+00  0.0000000000000E+00
168  1.6700000000000E+00  0.0000000000000E+00  0.0000000000000E+00
169  1.6800000000000E+00  0.0000000000000E+00  0.0000000000000E+00
170  1.6900000000000E+00  0.0000000000000E+00  0.0000000000000E+00
171  1.7000000000000E+00  0.0000000000000E+00  0.0000000000000E+00
172  1.7100000000000E+00  0.0000000000000E+00  0.0000000000000E+00
173  1.7200000000000E+00  0.0000000000000E+00  0.0000000000000E+00
174  1.7300000000000E+00  0.0000000000000E+00  0.0000000000000E+00
175  1.7400000000000E+00  0.0000000000000E+00  0.0000000000000E+00
176  1.7500000000000E+00  0.0000000000000E+00  0.0000000000000E+00
177  1.7600000000000E+00  0.0000000000000E+00  0.0000000000000E+00
178  1.7700000000000E+00  0.0000000000000E+00  0.0000000000000E+00
179  1.7800000000000E+00  0.0000000000000E+00  0.0000000000000E+00
180  1.7900000000000E+00  0.0000000000000E+00  0.0000000000000E+00
181  1.8000000000000E+00  0.0000000000000E+00  0.0000000000000E+00
182  1.8100000000000E+00  0.0000000000000E+00  0.0000000000000E+00
183  1.8200000000000E+00  0.0000000000000E+00  0.0000000000000E+00
184  1.8300000000000E+00  0.0000000000000E+00  0.0000000000000E+00
185  1.8400000000000E+00  0.0000000000000E+00  0.0000000000000E+00
186  1.8500000000000E+00  0.0000000000000E+00  0.0000000000000E+00
187  1.8600000000000E+00  0.0000000000000E+00  0.0000000000000E+00
188  1.8700000000000E+00  0.0000000000000E+00  0.0000000000000E+00
189  1.8800000000000E+00  0.0000000000000E+00  0.0000000000000E+00
190  1.8900000000000E+00  0.0000000000000E+00  0.0000000000000E+00
191  1.9000000000000E+00  0.0000000000000E+00  0.0000000000000E+00
192  1.9100000000000E+00  0.0000000000000E+00  0.0000000000000E+00
193  1.9200000000000E+00  0.0000000000000E+00  0.0000000000000E+00
194  1.9300000000000E+00  0.0000000000000E+00  0.0000000000000E+00
195  1.9400000000000E+00  0.0000000000000E+00  0.0000000000000E+00
196  1.9500000000000E+00  0.0000000000000E+00  0.0000000000000E+00
197  1.9600000000000E+00  0.0000000000000E+00  0.0000000000000E+00
198  1.9700000000000E+00  0.0000000000000E+00  0.0000000000000E+00
199  1.9800000000000E+00  0.0000000000000E+00  0.0000000000000E+00
200  1.9900000000000E+00  0.0000000000000E+00  0.0000000000000E+00
201  2.0000000000000E+00  0.0000000000000E+00  0.0000000000000E+00
202  2.0100000000000E+00  0.0000000000000E+00  0.0000000000000E+00
203  2.0200000000000E+00  0.0000000000000E+00  0.0000000000000E+00
204  2.0300000000000E+00  0.0000000000000E+00  0.0000000000000E+00
205  2.0400000000000E+00  0.0000000000000E+00  0.0000000000000E+00
206  2.0500000000000E+00  0.0000000000000E+00  0.0000000000000E+00
207  2.0600000000000E+00  0.0000000000000E+00  0.0000000000000E+00
208  2.0700000000000E+00  0.0000000000000E+00  0.0000000000000E+00
209  2.0800000000000E+00  0.0000000000000E+00  0.0000000000000E+00
210  2.0900000000000E+00  0.0000000000000E+00  0.0000000000000E+00
211  2.1000000000000E+00  0.0000000000000E+00  0.0000000000000E+00
212  2.1100000000000E+00  0.0000000000000E+00  0.0000000000000E+00
213  2.1200000000000E+00  0.0000000000000E+00  0.0000000000000E+00
214  2.1300000000000E+00  0.0000000000000E+00  0.0000000000000E+00
215  2.1400000000000E+00  0.0000000000000E+00  0.0000000000000E+00
216  2.1500000000000E+00  0.0000000000000E+00  0.0000000000000E+00
217  2.1600000000000E+00  0.0000000000000E+00  0.0000000000000E+00
218  2.1700000000000E+00  0.0000000000000E+00  0.0000000000000E+00
219  2.1800000000000E+00  0.0000000000000E+00  0.0000000000000E+00
220  2.1900000000000E+00  0.0000000000000E+00  0.0000000000000E+00
221  2.2000000000000E+00  0.0000000000000E+00  0.0000000000000E+00
222  2.2100000000000E+00  0.0000000000000E+00  0.0000000000000E+00
223  2.2200000000000E+00  0.0000000000000E+00  0.0000000000000E+00
224  2.2300000000000E+00  0.0000000000000E+00  0.0000000000000E+00
225  2.2400000000000E+00  0.0000000000000E+00  0.0000000000000E+00
226  2.2500000000000E+00  0.0000000000000E+00  0.0000000000000E+00
227  2.2600000000000E+00  0.0000000000000E+00  0.0000000000000E+00
228  2.2700000000000E+00  0.0000000000000E+00  0.0000000000000E+00
229  2.2800000000000E+00  0.0000000000000E+00  0.0000000000000E+00
230  2.2900000000000E+00  0.0000000000000E+00  0.0000000000000E+00
231  2.3000000000000E+00  0.0000000000000E+00  0.0000000000000E+00
232  2.3100000000000E+00  0.0000000000000E+00  0.0000000000000E+00
233  2.3200000000000E+00  0.0000000000000E+00  0.0000000000000E+00
234  2.3300000000000E+00  0.0000000000000E+00  0.0000000000000E+00
235  2.3400000000000E+00  0.0000000000000E+00  0.0000000000000E+00
236  2.3500000000000E+00  0.0000000000000E+00  0.0000000000000E+00
237  2.3600000000000E+00  0.0000000000000E+00  0.0000000000000E+00
238  2.3700000000000E+00  0.0000000000000E+00  0.0000000000000E+00
239  2.3800000000000E+00  0.0000000000000E+00  0.0000000000000E+00
240  2.3900000000000E+00  0.0000000000000E+00  0.0000000000000E+00
241  2.4000000000000E+00  0.0000000000000E+00  0.0000000000000E+00
242  2.4100000000000E+00  0.0000000000000E+00  0.0000000000000E+00
243  2.4200000000000E+00  0.0000000000000E+00  0.0000000000000E+00
244  2.4300000000000E+00  0.0000000000000E+00  0.0000000000000E+00
245  2.4400000000000E+00  0.0000000000000E+00  0.0000000000000E+00
246  2.4500000000000E+00  0.0000000000000E+00  0.0000000000000E+00
247  2.4600000000000E+00  0.0000000000000E+00  0.0000000000000E+00
248  2.4700000000000E+00  0.0000000000000E+00  0.0000000000000E+00
249  2.4800000000000E+00  0.0000000000000E+00  0.0000000000000E+00
250  2.4900000000000E+00  0.0000000000000E+00  0.0000000000000E+00
251  2.5000000000000E+00  0.0000000000000E+00  0.0000000000000E+00
252  2.5100000000000E+00  0.0000000000000E+00  0.0000000000000E+00
253  2.5200000000000E+00  0.0000000000000E+00  0.0000000000000E+00
254  2.5300000000000E+00  0.0000000000000E+00  0.0000000000000E+00
255  2.5400000000000E+00  0.0000000000000E+00  0.0000000000000E+00
256  2.5500000000000E+00  0.0000000000000E+00  0.0000000000000E+00
257  2.5600000000000E+00  0.0000000000000E+00  0.0000000000000E+00
258  2.5700000000000E+00  0.0000000000000E+00  0.0000000000000E+00
259  2.5800000000000E+00  0.0000000000000E+00  0.0000000000000E+00
260  2.5900000000000E+00  0.0000000000000E+00  0.0000000000000E+00
261  2.6000000000000E+00  0.0000000000000E+00  0.0000000000000E+00
262  2.6100000000000E+00  0.0000000000000E+00  0.0000000000000E+00
263  2.6200000000000E+00  0.0000000000000E+00  0.0000000000000E+00
264  2.6300000000000E+00  0.0000000000000E+00  0.0000000000000E+00
265  2.6400000000000E+00  0.0000000000000E+00  0.0000000000000E+00
266  2.6500000000000E+00  0.0000000000000E+00  0.0000000000000E+00
267  2.6600000000000E+00  0.0000000000000E+00  0.0000000000000E+00
268  2.6700000000000E+00  0.0000000000000E+00  0.0000000000000E+00
269  2.6800000000000E+00  0.0000000000000E+00  0.0000000000000E+00
270  2.6900000000000E+00  0.0000000000000E+00  0.0000000000000E+00
271  2.7000000000000E+00  0.0000000000000E+00  0.0000000000000E+00
272  2.7100000000000E+00  0.0000000000000E+00  0.0000000000000E+00
273  2.7200000000000E+00  0.0000000000000E+00  0.0000000000000E+00
274  2.7300000000000E+00  0.0000000000000E+00  0.0000000000000E+00
275  2.7400000000000E+00  0.0000000000000E+00  0.0000000000000E+00
276  2.7500000000000E+00  0.0000000000000E+00  0.0000000000000E+00
277  2.7600000000000E+00  0.0000000000000E+00  0.0000000000000E+00
278  2.7700000000000E+00  0.0000000000000E+00  0.0000000000000E+00
279  2.7800000000000E+00  0.0000000000000E+00  0.0000000000000E+00
280  2.7900000000000E+00  0.0000000000000E+00  0.0000000000000E+00
281  2.8000000000000E+00  0.0000000000000E+00  0.0000000000000E+00
282  2.8100000000000E+00  0.0000000000000E+00  0.0000000000000E+00
283  2.8200000000000E+00  0.0000000000000E+00  0.0000000000000E+00
284  2.8300000000000E+00  0.0000000000000E+00  0.0000000000000E+00
285  2.8400000000000E+00  0.0000000000000E+00  0.0000000000000E+00
286  2.8500000000000E+00  0.0000000000000E+00  0.0000000000000E+00
287  2.8600000000000E+00  0.0000000000000E+00  0.0000000000000E+00
288  2.8700000000000E+00  0.0000000000000E+00  0.0000000000000E+00
289  2.8800000000000E+00  0.0000000000000E+00  0.0000000000000E+00
290  2.8900000000000E+00  0.0000000000000E+00  0.0000000000000E+00
291  2.9000000000000E+00  0.0000000000000E+00  0.0000000000000E+00
292  2.9100000000000E+00  0.0000000000000E+00  0.0000000000000E+00
293  2.9200000000000E+00  0.0000000000000E+00  0.0000000000000E+00
294  2.9300000000000E+00  0.0000000000000E+00  0.0000000000000E+00
295  2.9400000000000E+00  0.0000000000000E+00  0.0000000000000E+00
296  2.9500000000000E+00  0.0000000000000E+00  0.0000000000000E+00
297  2.9600000000000E+00  0.0000000000000E+00  0.0000000000000E+00
298  2.9700000000000E+00  0.0000000000000E+00  0.0000000000000E+00
299  2.9800000000000E+00  0.0000000000000E+00  0.0000000000000E+00
300  2.9900000000000E+00  0.0000000000000E+00  0.0000000000000E+00
301  3.0000000000000E+00  0.0000000000000E+00  0.0000000000000E+00
302  3.0100000000000E+00  0.0000000000000E+00  0.0000000000000E+00
303  3.0200000000000E+00  0.0000000000000E+00  0.0000000000000E+00
304  3.0300000000000E+00  0.0000000000000E+00  0.0000000000000E+00
305  3.0400000000000E+00  0.0000000000000E+00  0.0000000000000E+00
306  3.0500000000000E+00  0.0000000000000E+00  0.0000000000000E+00
307  3.0600000000000E+00  0.0000000000000E+00  0.0000000000000E+00
308  3.0700000000000E+00  0.0000000000000E+00  0.0000000000000E+00
309  3.0800000000000E+00  0.0000000000000E+00  0.0000000000000E+00
310  3.0900000000000E+00  0.0000000000000E+00  0.0000000000000E+00
311  3.1000000000000E+00  0.0000000000000E+00  0.0000000000000E+00
312  3.1100000000000E+00  0.0000000000000E+00  0.0000000000000E+00
313  3.1200000000000E+00  0.0000000000000E+00  0.0000000000000E+00
314  3.1300000000000E+00  0.0000000000000E+00  0.0000000000000E+00
315  3.1400000000000E+00  0.0000000000000E+00  0.0000000000000E+00
316  3.1500000000000E+00  0.0000000000000E+00  0.0000000000000E+00
317  3.1600000000000E+00  0.0000000000000E+00  0.0000000000000E+00
318  3.1700000000000E+00  0.0000000000000E+00  0.0000000000000E+00
319  3.1800000000000E+00  0.0000000000000E+00  0.0000000000000E+00
320  3.1900000000000E+00  0.0000000000000E+00  0.0000000000000E+00
321  3.2000000000000E+00  0.0000000000000E+00  0.0000000000000E+00
322  3.2100000000000E+00  0.0000000000000E+00  0.0000000000000E+00
323  3.2200000000000E+00  0.0000000000000E+00  0.0000000000000E+00
324  3.2300000000000E+00  0.0000000000000E+00  0.0000000000000E+00
325  3.2400000000000E+00  0.0000000000000E+00  0.0000000000000E+00
326  3.2500000000000E+00  0.0000000000000E+00  0.0000000000000E+00
327  3.2600000000000E+00  0.0000000000000E+00  0.0000000000000E+00
328  3.2700000000000E+00  0.0000000000000E+00  0.0000000000000E+00
329  3.2800000000000E+00  0.0000000000000E+00  0.0000000000000E+00
330  3.2900000000000E+00  0.0000000000000E+00  0.0000000000000E+00
331  3.3000000000000E+00  0.0000000000000E+00  0.0000000000000E+00
332  3.3100000000000E+00  0.0000000000000E+00  0.0000000000000E+00
333  3.3200000000000E+00  0.0000000000000E+00  0.0000000000000E+00
334  3.3300000000000E+00  0.0000000000000E+00  0.0000000000000E+00
335  3.3400000000000E+00  0.0000000000000E+00  0.0000000000000E+00
336  3.3500000000000E+00  0.0000000000000E+00  0.0000000000000E+00
337  3.3600000000000E+00  0.0000000000000E+00  0.0000000000000E+00
338  3.3700000000000E+00  0.0000000000000E+00  0.0000000000000E+00
339  3.3800000000000E+00  0.0000000000000E+00  0.0000000000000E+00
340  3.3900000000000E+00  0.0000000000000E+00  0.0000000000000E+00
341  3.4000000000000E+00  0.0000000000000E+00  0.0000000000000E+00
342  3.4100000000000E+00  0.0000000000000E+00  0.0000000000000E+00
343  3.4200000000000E+00  0.0000000000000E+00  0.0000000000000E+00
344  3.4300000000000E+00  0.0000000000000E+00  0.0000000000000E+00
345  3.4400000000000E+00  0.0000000000000E+00  0.0000000000000E+00
346  3.4500000000000E+00  0.0000000000000E+00  0.0000000000000E+00
347  3.4600000000000E+00  0.0000000000000E+00  0.0000000000000E+00
348  3.4700000000000E+00  0.0000000000000E+00  0.0000000000000E+00
349  3.4800000000000E+00  0.0000000000000E+00  0.0000000000000E+00
350  3.4900000000000E+00  0.0000000000000E+00  0.0000000000000E+00
351  3.5000000000000E+00  0.0000000000000E+00  0.0000000000000E+00
352  3.5100000000000E+00  0.0000000000000E+00  0.0000000000000E+00
353  3.5200000000000E+00  0.0000000000000E+00  0.0000000000000E+00
354  3.5300000000000E+00  0.0000000000000E+00  0.0000000000000E+00
355  3.5400000000000E+00  0.0000000000000E+00  0.0000000000000E+00
356  3.5500000000000E+00  0.0000000000000E+00  0.0000000000000E+00
357  3.5600000000000E+00  0.0000000000000E+00  0.0000000000000E+00
358  3.5700000000000E+00  0.0000000000000E+00  0.0000000000000E+00
359  3.5800000000000E+00  0.0000000000000E+00  0.0000000000000E+00
360  3.5900000000000E+00  0.0000000000000E+00  0.0000000000000E+00
361  3.6000000000000E+00  0.0000000000000E+00  0.0000000000000E+00
362  3.6100000000000E+00  0.0000000000000E+00  0.0000000000000E+00
363  3.6200000000000E+00  0.0000000000000E+00  0.0000000000000E+00
364  3.6300000000000E+00  0.0000000000000E+00  0.0000000000000E+00
365  3.6400000000000E+00  0.0000000000000E+00  0.0000000000000E+00
366  3.6500000000000E+00  0.0000000000000E+00  0.0000000000000E+00
367  3.6600000000000E+00  0.0000000000000E+00  0.0000000000000E+00
368  3.6700000000000E+00  0.0000000000000E+00  0.0000000000000E+00
369  3.6800000000000E+00  0.0000000000000E+00  0.0000000000000E+00
370  3.6900000000000E+00  0.0000000000000E+00  0.0000000000000E+00
371  3.7000000000000E+00  0.0000000000000E+00  0.0000000000000E+00
372  3.7100000000000E+00  0.0000000000000E+00  0.0000000000000E+00
373  3.7200000000000E+00  0.0000000000000E+00  0.0000000000000E+00
374  3.7300000000000E+00  0.0000000000000E+00  0.0000000000000E+00
375  3.7400000000000E+00  0.0000000000000E+00  0.0000000000000E+00
376  3.7500000000000E+00  0.0000000000000E+00  0.0000000000000E+00
377  3.7600000000000E+00  0.0000000000000E+00  0.0000000000000E+00
378  3.7700000000000E+00  0.0000000000000E+00  0.0000000000000E+00
379  3.7800000000000E+00  0.0000000000000E+00  0.0000000000000E+00
380  3.7900000000000E+00  0.0000000000000E+00  0.0000000000000E+00
381  3.8000000000000E+00  0.0000000000000E+00  0.0000000000000E+00
382  3.8100000000000E+00  0.0000000000000E+00  0.0000000000000E+00
383  3.8200000000000E+00  0.0000000000000E+00  0.0000000000000E+00
384  3.8300000000000E+00  0.0000000000000E+00  0.0000000000000E+00
385  3.8400000000000E+00  0.0000000000000E+00  0.0000000000000E+00
386  3.8500000000000E+00  0.0000000000000E+00  0.0000000000000E+00
387  3.8600000000000E+00  0.0000000000000E+00  0.0000000000000E+00
388  3.8700000000000E+00  0.0000000000000E+00  0.0000000000000E+00
389  3.8800000000000E+00  0.0000000000000E+00  0.0000000000000E+00
390  3.8900000000000E+00  0.0000000000000E+00  0.0000000000000E+00
391  3.9000000000000E+00  0.0000000000000E+00  0.0000000000000E+00
392  3.9100000000000E+00  0.0000000000000E+00  0.0000000000000E+00
393  3.9200000000000E+00  0.0000000000000E+00  0.0000000000000E+00
394  3.9300000000000E+00  0.0000000000000E+00  0.0000000000000E+00
395  3.9400000000000E+00  0.0000000000000E+00  0.0000000000000E+00
396  3.9500000000000E+00  0.0000000000000E+00  0.0000000000000E+00
397  3.9600000000000E+00  0.0000000000000E+00  0.0000000000000E+00
398  3.9700000000000E+00  0.0000000000000E+00  0.0000000000000E+00
399  3.9800000000000E+00  0.0000000000000E+00  0.0000000000000E+00
400  3.9900000000000E+00  0.0000000000000E+00  0.0000000000000E+00
401  4.0000000000000E+00  0.0000000000000E+00  0.0000000000000E+00
402  4.0100000000000E+00  0.0000000000000E+00  0.0000000000000E+00
403  4.0200000000000E+00  0.0000000000000E+00  0.0000000000000E+00
404  4.0300000000000E+00  0.0000000000000E+00  0.0000000000000E+00
405  4.0400000000000E+00  0.0000000000000E+00  0.0000000000000E+00
406  4.0500000000000E+00  0.0000000000000E+00  0.0000000000000E+00
407  4.0600000000000E+00  0.0000000000000E+00  0.0000000000000E+00
408  4.0700000000000E+00  0.0000000000000E+00  0.0000000000000E+00
409  4.0800000000000E+00  0.0000000000000E+00  0.0000000000000E+00
410  4.0900000000000E+00  0.0000000000000E+00  0.0000000000000E+00
411  4.1000000000000E+00  0.0000000000000E+00  0.0000000000000E+00
412  4.1100000000000E+00  0.0000000000000E+00  0.0000000000000E+00
413  4.1200000000000E+00  0.0000000000000E+00  0.0000000000000E+00
414  4.1300000000000E+00  0.0000000000000E+00  0.0000000000000E+00
415  4.1400000000000E+00  0.0000000000000E+00  0.0000000000000E+00
416  4.1500000000000E+00  0.0000000000000E+00  0.0000000000000E+00
417  4.1600000000000E+00  0.0000000000000E+00  0.0000000000000E+00
418  4.1700000000000E+00  0.0000000000000E+00  0.0000000000000E+00
419  4.1800000000000E+00  0.0000000000000E+00  0.0000000000000E+00
420  4.1900000000000E+00  0.0000000000000E+00  0.0000000000000E+00
421  4.2000000000000E+00  0.0000000000000E+00  0.0000000000000E+00
422  4.2100000000000E+00  0.0000000000000E+00  0.0000000000000E+00
423  4.2200000000000E+00  0.0000000000000E+00  0.0000000000000E+00
424  4.2300000000000E+00  0.0000000000000E+00  0.0000000000000E+00
425  4.2400000000000E+00  0.0000000000000E+00  0.0000000000000E+00
426  4.2500000000000E+00  0.0000000000000E+00  0.0000000000000E+00
427  4.2600000000000E+00  0.0000000000000E+00  0.0000000000000E+00
428  4.2700000000000E+00  0.0000000000000E+00  0.0000000000000E+00
429  4.2800000000000E+00  0.0000000000000E+00  0.0000000000000E+00
430  4.2900000000000E+00  0.0000000000000E+00  0.0000000000000E+00
431  4.3000000000000E+00  0.0000000000000E+00  0.0000000000000E+00
432  4.3100000000000E+00  0.0000000000000E+00  0.0000000000000E+00
433  4.3200000000000E+00  0.0000000000000E+00  0.0000000000000E+00
434  4.3300000000000E+00  0.0000000000000E+00  0.0000000000000E+00
435  4.3400000000000E+00  0.0000000000000E+00  0.0000000000000E+00
436  4.3500000000000E+00  0.0000000000000E+00  0.0000000000000E+00
437  4.3600000000000E+00  0.0000000000000E+00  0.0000000000000E+00
438  4.3700000000000E+00  0.0000000000000E+00  0.0000000000000E+00
439  4.3800000000000E+00  0.0000000000000E+00  0.0000000000000E+00
440  4.3900000000000E+00  0.0000000000000E+00  0.0000000000000E+00
441  4.4000000000000E+00  0.0000000000000E+00  0.0000000000000E+00
442  4.4100000000000E+00  0.0000000000000E+00  0.0000000000000E+00
443  4.4200000000000E+00  0.0000000000000E+00  0.0000000000000E+00