Nb    ONCVPSP-3.2.3.1  r_core=   1.50879   1.40458   1.40458
41.0000     13.0000      170510    zatom,zion,pspd
8      11   2     4   600     0    pspcod,pspxc,lmax,lloc,mmax,r2well
5.99000000  5.00000000  0.00000000    rchrg fchrg qchrg
2     2     2     0     0    nproj
1     1           extension_switch
0                         1.2947070129531E+01  1.3411368770248E+00
1  0.0000000000000E+00  1.3659839925850E-10 -3.4743222188105E-10
2  1.0000000000000E-02  5.0935740422052E-02 -1.5706089407924E-02
3  2.0000000000000E-02  1.0184672647797E-01 -3.1445597353002E-02
4  3.0000000000000E-02  1.5270781163804E-01 -4.7250911410520E-02
5  4.0000000000000E-02  2.0349306930223E-01 -6.3152367900165E-02
6  5.0000000000000E-02  2.5417541337243E-01 -7.9177252840277E-02
7  6.0000000000000E-02  3.0472623145656E-01 -9.5348834553768E-02
8  7.0000000000000E-02  3.5511503475399E-01 -1.1168543806696E-01
9  8.0000000000000E-02  4.0530912853554E-01 -1.2819957109517E-01
10  9.0000000000000E-02  4.5527330696193E-01 -1.4489711097959E-01
11  1.0000000000000E-01  5.0496957578517E-01 -1.6177656143121E-01
12  1.1000000000000E-01  5.5435690624727E-01 -1.7882838735306E-01
13  1.2000000000000E-01  6.0339102323326E-01 -1.9603443535654E-01
14  1.3000000000000E-01  6.5202423045153E-01 -2.1336744686448E-01
15  1.4000000000000E-01  7.0020527510668E-01 -2.3079066990973E-01
16  1.5000000000000E-01  7.4787925420010E-01 -2.4825757489718E-01
17  1.6000000000000E-01  7.9498756424441E-01 -2.6571167870753E-01
18  1.7000000000000E-01  8.4146789581148E-01 -2.8308648058697E-01
19  1.8000000000000E-01  8.8725427395369E-01 -3.0030551229739E-01
20  1.9000000000000E-01  9.3227714514612E-01 -3.1728250400225E-01
21  2.0000000000000E-01  9.7646351099761E-01 -3.3392166634261E-01
22  2.1000000000000E-01  1.0197371085728E+00 -3.5011808812286E-01
23  2.2000000000000E-01  1.0620186367604E+00 -3.6575824798575E-01
24  2.3000000000000E-01  1.1032260277144E+00 -3.8072063741755E-01
25  2.4000000000000E-01  1.1432747619954E+00 -3.9487649139717E-01
26  2.5000000000000E-01  1.1820782256403E+00 -4.0809062199412E-01
27  2.6000000000000E-01  1.2195481070055E+00 -4.2022234923894E-01
28  2.7000000000000E-01  1.2555948308584E+00 -4.3112652264390E-01
29  2.8000000000000E-01  1.2901280268338E+00 -4.4065462584891E-01
30  2.9000000000000E-01  1.3230570290414E+00 -4.4865595601686E-01
31  3.0000000000000E-01  1.3542914032922E+00 -4.5497886881025E-01
32  3.1000000000000E-01  1.3837414981296E+00 -4.5947207905539E-01
33  3.2000000000000E-01  1.4113190155871E+00 -4.6198600654734E-01
34  3.3000000000000E-01  1.4369375973669E+00 -4.6237415587626E-01
35  3.4000000000000E-01  1.4605134219352E+00 -4.6049451866784E-01
36  3.5000000000000E-01  1.4819658078677E+00 -4.5621098623388E-01
37  3.6000000000000E-01  1.5012178186510E+00 -4.4939476032828E-01
38  3.7000000000000E-01  1.5181968640565E+00 -4.3992574950165E-01
39  3.8000000000000E-01  1.5328352931508E+00 -4.2769393844990E-01
40  3.9000000000000E-01  1.5450709739976E+00 -4.1260071775817E-01
41  4.0000000000000E-01  1.5548478551318E+00 -3.9456016155617E-01
42  4.1000000000000E-01  1.5621165039569E+00 -3.7350024082205E-01
43  4.2000000000000E-01  1.5668346173266E+00 -3.4936396040258E-01
44  4.3000000000000E-01  1.5689674997182E+00 -3.2211040825317E-01
45  4.4000000000000E-01  1.5684885045963E+00 -2.9171570594369E-01
46  4.5000000000000E-01  1.5653794347903E+00 -2.5817385011951E-01
47  4.6000000000000E-01  1.5596308979735E+00 -2.2149743535017E-01
48  4.7000000000000E-01  1.5512426136288E+00 -1.8171824963379E-01
49  4.8000000000000E-01  1.5402236682194E+00 -1.3888773475080E-01
50  4.9000000000000E-01  1.5265927156427E+00 -9.3077304666223E-02
51  5.0000000000000E-01  1.5103781204397E+00 -4.4378516261910E-02
52  5.1000000000000E-01  1.4916180416440E+00  7.0969121728082E-03
53  5.2000000000000E-01  1.4703604555956E+00  6.1217238057647E-02
54  5.3000000000000E-01  1.4466631165007E+00  1.1783098935630E-01
55  5.4000000000000E-01  1.4205934539892E+00  1.7676741794960E-01
56  5.5000000000000E-01  1.3922284074074E+00  2.3783711104601E-01
57  5.6000000000000E-01  1.3616541970727E+00  3.0083275879167E-01
58  5.7000000000000E-01  1.3289660332127E+00  3.6553007490217E-01
59  5.8000000000000E-01  1.2942677638040E+00  4.3168886579937E-01
60  5.9000000000000E-01  1.2576714630158E+00  4.9905424242410E-01
61  6.0000000000000E-01  1.2192969624446E+00  5.6735796760298E-01
62  6.1000000000000E-01  1.1792713277913E+00  6.3631993060767E-01
63  6.2000000000000E-01  1.1377282840839E+00  7.0564973934930E-01
64  6.3000000000000E-01  1.0948075929775E+00  7.7504841952522E-01
65  6.4000000000000E-01  1.0506543860666E+00  8.4421020898614E-01
66  6.5000000000000E-01  1.0054184585207E+00  9.1282443462341E-01
67  6.6000000000000E-01  9.5925352769634E-01  9.8057745821033E-01
68  6.7000000000000E-01  9.1231646168785E-01  1.0471546768679E+00
69  6.8000000000000E-01  8.6476648304660E-01  1.1122425631735E+00
70  6.9000000000000E-01  8.1676435312898E-01  1.1755307294047E+00
71  7.0000000000000E-01  7.6847154271675E-01  1.2367140000053E+00
72  7.1000000000000E-01  7.2004939469474E-01  1.2954944760962E+00
73  7.2000000000000E-01  6.7165828466353E-01  1.3515835757142E+00
74  7.3000000000000E-01  6.2345678541033E-01  1.4047040334751E+00
75  7.4000000000000E-01  5.7560084115831E-01  1.4545918435011E+00
76  7.5000000000000E-01  5.2824295746264E-01  1.5009981297433E+00
77  7.6000000000000E-01  4.8153141252079E-01  1.5436909282578E+00
78  7.7000000000000E-01  4.3560949551624E-01  1.5824568665656E+00
79  7.8000000000000E-01  3.9061477741873E-01  1.6171027259215E+00
80  7.9000000000000E-01  3.4667841942347E-01  1.6474568731569E+00
81  8.0000000000000E-01  3.0392452392670E-01  1.6733705497059E+00
82  8.1000000000000E-01  2.6246953260932E-01  1.6947190065028E+00
83  8.2000000000000E-01  2.2242167583579E-01  1.7114024746068E+00
84  8.3000000000000E-01  1.8388047717618E-01  1.7233469626877E+00
85  8.4000000000000E-01  1.4693631642750E-01  1.7305048738623E+00
86  8.5000000000000E-01  1.1167005405112E-01  1.7328554358028E+00
87  8.6000000000000E-01  7.8152719459689E-02  1.7304049395314E+00
88  8.7000000000000E-01  4.6445265084202E-02  1.7231867838566E+00
89  8.8000000000000E-01  1.6598387633561E-02  1.7112613239769E+00
90  8.9000000000000E-01 -1.1347582568909E-02  1.6947155243739E+00
91  9.0000000000000E-01 -3.7362723821403E-02  1.6736624177077E+00
92  9.1000000000000E-01 -6.1427497035564E-02  1.6482403730161E+00
93  9.2000000000000E-01 -8.3532652197836E-02  1.6186121780729E+00
94  9.3000000000000E-01 -1.0367906853395E-01  1.5849639422805E+00
95  9.4000000000000E-01 -1.2187753011659E-01  1.5475038279283E+00
96  9.5000000000000E-01 -1.3814843914375E-01  1.5064606190399E+00
97  9.6000000000000E-01 -1.5252146957868E-01  1.4620821383357E+00
98  9.7000000000000E-01 -1.6503516427863E-01  1.4146335240438E+00
99  9.8000000000000E-01 -1.7573647914418E-01  1.3643953793935E+00
100  9.9000000000000E-01 -1.8468027818927E-01  1.3116618085998E+00
101  1.0000000000000E+00 -1.9192878375659E-01  1.2567383539832E+00
102  1.0100000000000E+00 -1.9755098639950E-01  1.1999398495989E+00
103  1.0200000000000E+00 -2.0162201918532E-01  1.1415882072880E+00
104  1.0300000000000E+00 -2.0422250137332E-01  1.0820101514760E+00
105  1.0400000000000E+00 -2.0543785656708E-01  1.0215349192972E+00
106  1.0500000000000E+00 -2.0535761053447E-01  9.6049194269183E-01
107  1.0600000000000E+00 -2.0407467393695E-01  8.9920852908202E-01
108  1.0700000000000E+00 -2.0168461520382E-01  8.3800755696683E-01
109  1.0800000000000E+00 -1.9828492872891E-01  7.7720520239551E-01
110  1.0900000000000E+00 -1.9397430346291E-01  7.1710871172684E-01
111  1.1000000000000E+00 -1.8885189680400E-01  6.5801423532342E-01
112  1.1100000000000E+00 -1.8301661852836E-01  6.0020473614063E-01
113  1.1200000000000E+00 -1.7656642920361E-01  5.4394798598198E-01
114  1.1300000000000E+00 -1.6959765728053E-01  4.8949466124756E-01
115  1.1400000000000E+00 -1.6220433867313E-01  4.3707654856418E-01
116  1.1500000000000E+00 -1.5447758238609E-01  3.8690486975982E-01
117  1.1600000000000E+00 -1.4650496522493E-01  3.3916873375944E-01
118  1.1700000000000E+00 -1.3836995828275E-01  2.9403372177683E-01
119  1.1800000000000E+00 -1.3015138738456E-01  2.5164061038763E-01
120  1.1900000000000E+00 -1.2192292936282E-01  2.1210423599370E-01
121  1.2000000000000E+00 -1.1375264535380E-01  1.7551250184876E-01
122  1.2100000000000E+00 -1.0570255190987E-01  1.4192552749436E-01
123  1.2200000000000E+00 -9.7828229618712E-02  1.1137493544695E-01
124  1.2300000000000E+00 -9.0178473405413E-02  8.3863294239904E-02
125  1.2400000000000E+00 -8.2794963489049E-02  5.9363610290994E-02
126  1.2500000000000E+00 -7.5712059760673E-02  3.7819381530493E-02
127  1.2600000000000E+00 -6.8956357452302E-02  1.9143390051549E-02
128  1.2700000000000E+00 -6.2546758424516E-02  3.2190554992257E-03
129  1.2800000000000E+00 -5.6495490233590E-02 -1.0093363788318E-02
130  1.2900000000000E+00 -5.0809387758389E-02 -2.0949924896964E-02
131  1.3000000000000E+00 -4.5490962246629E-02 -2.9517585076744E-02
132  1.3100000000000E+00 -4.0538592196008E-02 -3.5973587775566E-02
133  1.3200000000000E+00 -3.5947019674082E-02 -4.0503278024482E-02
134  1.3300000000000E+00 -3.1707818167429E-02 -4.3298128551457E-02
135  1.3400000000000E+00 -2.7809885031039E-02 -4.4553692469157E-02
136  1.3500000000000E+00 -2.4239939047182E-02 -4.4467570948467E-02
137  1.3600000000000E+00 -2.0983025484322E-02 -4.3237373845000E-02
138  1.3700000000000E+00 -1.8023021762663E-02 -4.1058699972435E-02
139  1.3800000000000E+00 -1.5343138480515E-02 -3.8123154631413E-02
140  1.3900000000000E+00 -1.2926410815350E-02 -3.4616421195454E-02
141  1.4000000000000E+00 -1.0756175000732E-02 -3.0716404544375E-02
142  1.4100000000000E+00 -8.8165254692171E-03 -2.6591460946714E-02
143  1.4200000000000E+00 -7.0927476869942E-03 -2.2398731051987E-02
144  1.4300000000000E+00 -5.5717224801574E-03 -1.8282589801213E-02
145  1.4400000000000E+00 -4.2422983532579E-03 -1.4373224593251E-02
146  1.4500000000000E+00 -3.0956264918214E-03 -1.0785360049563E-02
147  1.4600000000000E+00 -2.1258124262098E-03 -7.6188165540884E-03
148  1.4700000000000E+00 -1.3287331125281E-03 -4.9507447882528E-03
149  1.4800000000000E+00 -7.0176579620117E-04 -2.8277148540929E-03
150  1.4900000000000E+00 -2.5487745183460E-04 -1.3399881432383E-03
151  1.5000000000000E+00  4.7360916949421E-06 -5.4239887140551E-04
152  1.5100000000000E+00  8.8974364384380E-05 -2.0324697860045E-04
153  1.5200000000000E+00  4.5480336526131E-05 -4.7546878732343E-05
154  1.5300000000000E+00 -9.1653507480564E-06  6.8148816367238E-06
155  1.5400000000000E+00 -9.7853626252766E-06  5.4086462018916E-06
156  1.5500000000000E+00  2.3824206575645E-06 -2.2474891238133E-06
157  1.5600000000000E+00  1.6394635788999E-06 -1.4096409641353E-06
158  1.5700000000000E+00 -2.2610869028634E-07  5.9776020609081E-07
159  1.5800000000000E+00 -9.6638260984098E-08  2.5548114373206E-07
160  1.5900000000000E+00  0.0000000000000E+00  0.0000000000000E+00
161  1.6000000000000E+00  0.0000000000000E+00  0.0000000000000E+00
162  1.6100000000000E+00  0.0000000000000E+00  0.0000000000000E+00
163  1.6200000000000E+00  0.0000000000000E+00  0.0000000000000E+00
164  1.6300000000000E+00  0.0000000000000E+00  0.0000000000000E+00
165  1.6400000000000E+00  0.0000000000000E+00  0.0000000000000E+00
166  1.6500000000000E+00  0.0000000000000E+00  0.0000000000000E+00
167  1.6600000000000E+00  0.0000000000000E+00  0.0000000000000E+00
168  1.6700000000000E+00  0.0000000000000E+00  0.0000000000000E+00
169  1.6800000000000E+00  0.0000000000000E+00  0.0000000000000E+00
170  1.6900000000000E+00  0.0000000000000E+00  0.0000000000000E+00
171  1.7000000000000E+00  0.0000000000000E+00  0.0000000000000E+00
172  1.7100000000000E+00  0.0000000000000E+00  0.0000000000000E+00
173  1.7200000000000E+00  0.0000000000000E+00  0.0000000000000E+00
174  1.7300000000000E+00  0.0000000000000E+00  0.0000000000000E+00
175  1.7400000000000E+00  0.0000000000000E+00  0.0000000000000E+00
176  1.7500000000000E+00  0.0000000000000E+00  0.0000000000000E+00
177  1.7600000000000E+00  0.0000000000000E+00  0.0000000000000E+00
178  1.7700000000000E+00  0.0000000000000E+00  0.0000000000000E+00
179  1.7800000000000E+00  0.0000000000000E+00  0.0000000000000E+00
180  1.7900000000000E+00  0.0000000000000E+00  0.0000000000000E+00
181  1.8000000000000E+00  0.0000000000000E+00  0.0000000000000E+00
182  1.8100000000000E+00  0.0000000000000E+00  0.0000000000000E+00
183  1.8200000000000E+00  0.0000000000000E+00  0.0000000000000E+00
184  1.8300000000000E+00  0.0000000000000E+00  0.0000000000000E+00
185  1.8400000000000E+00  0.0000000000000E+00  0.0000000000000E+00
186  1.8500000000000E+00  0.0000000000000E+00  0.0000000000000E+00
187  1.8600000000000E+00  0.0000000000000E+00  0.0000000000000E+00
188  1.8700000000000E+00  0.0000000000000E+00  0.0000000000000E+00
189  1.8800000000000E+00  0.0000000000000E+00  0.0000000000000E+00
190  1.8900000000000E+00  0.0000000000000E+00  0.0000000000000E+00
191  1.9000000000000E+00  0.0000000000000E+00  0.0000000000000E+00
192  1.9100000000000E+00  0.0000000000000E+00  0.0000000000000E+00
193  1.9200000000000E+00  0.0000000000000E+00  0.0000000000000E+00
194  1.9300000000000E+00  0.0000000000000E+00  0.0000000000000E+00
195  1.9400000000000E+00  0.0000000000000E+00  0.0000000000000E+00
196  1.9500000000000E+00  0.0000000000000E+00  0.0000000000000E+00
197  1.9600000000000E+00  0.0000000000000E+00  0.0000000000000E+00
198  1.9700000000000E+00  0.0000000000000E+00  0.0000000000000E+00
199  1.9800000000000E+00  0.0000000000000E+00  0.0000000000000E+00
200  1.9900000000000E+00  0.0000000000000E+00  0.0000000000000E+00
201  2.0000000000000E+00  0.0000000000000E+00  0.0000000000000E+00
202  2.0100000000000E+00  0.0000000000000E+00  0.0000000000000E+00
203  2.0200000000000E+00  0.0000000000000E+00  0.0000000000000E+00
204  2.0300000000000E+00  0.0000000000000E+00  0.0000000000000E+00
205  2.0400000000000E+00  0.0000000000000E+00  0.0000000000000E+00
206  2.0500000000000E+00  0.0000000000000E+00  0.0000000000000E+00
207  2.0600000000000E+00  0.0000000000000E+00  0.0000000000000E+00
208  2.0700000000000E+00  0.0000000000000E+00  0.0000000000000E+00
209  2.0800000000000E+00  0.0000000000000E+00  0.0000000000000E+00
210  2.0900000000000E+00  0.0000000000000E+00  0.0000000000000E+00
211  2.1000000000000E+00  0.0000000000000E+00  0.0000000000000E+00
212  2.1100000000000E+00  0.0000000000000E+00  0.0000000000000E+00
213  2.1200000000000E+00  0.0000000000000E+00  0.0000000000000E+00
214  2.1300000000000E+00  0.0000000000000E+00  0.0000000000000E+00
215  2.1400000000000E+00  0.0000000000000E+00  0.0000000000000E+00
216  2.1500000000000E+00  0.0000000000000E+00  0.0000000000000E+00
217  2.1600000000000E+00  0.0000000000000E+00  0.0000000000000E+00
218  2.1700000000000E+00  0.0000000000000E+00  0.0000000000000E+00
219  2.1800000000000E+00  0.0000000000000E+00  0.0000000000000E+00
220  2.1900000000000E+00  0.0000000000000E+00  0.0000000000000E+00
221  2.2000000000000E+00  0.0000000000000E+00  0.0000000000000E+00
222  2.2100000000000E+00  0.0000000000000E+00  0.0000000000000E+00
223  2.2200000000000E+00  0.0000000000000E+00  0.0000000000000E+00
224  2.2300000000000E+00  0.0000000000000E+00  0.0000000000000E+00
225  2.2400000000000E+00  0.0000000000000E+00  0.0000000000000E+00
226  2.2500000000000E+00  0.0000000000000E+00  0.0000000000000E+00
227  2.2600000000000E+00  0.0000000000000E+00  0.0000000000000E+00
228  2.2700000000000E+00  0.0000000000000E+00  0.0000000000000E+00
229  2.2800000000000E+00  0.0000000000000E+00  0.0000000000000E+00
230  2.2900000000000E+00  0.0000000000000E+00  0.0000000000000E+00
231  2.3000000000000E+00  0.0000000000000E+00  0.0000000000000E+00
232  2.3100000000000E+00  0.0000000000000E+00  0.0000000000000E+00
233  2.3200000000000E+00  0.0000000000000E+00  0.0000000000000E+00
234  2.3300000000000E+00  0.0000000000000E+00  0.0000000000000E+00
235  2.3400000000000E+00  0.0000000000000E+00  0.0000000000000E+00
236  2.3500000000000E+00  0.0000000000000E+00  0.0000000000000E+00
237  2.3600000000000E+00  0.0000000000000E+00  0.0000000000000E+00
238  2.3700000000000E+00  0.0000000000000E+00  0.0000000000000E+00
239  2.3800000000000E+00  0.0000000000000E+00  0.0000000000000E+00
240  2.3900000000000E+00  0.0000000000000E+00  0.0000000000000E+00
241  2.4000000000000E+00  0.0000000000000E+00  0.0000000000000E+00
242  2.4100000000000E+00  0.0000000000000E+00  0.0000000000000E+00
243  2.4200000000000E+00  0.0000000000000E+00  0.0000000000000E+00
244  2.4300000000000E+00  0.0000000000000E+00  0.0000000000000E+00
245  2.4400000000000E+00  0.0000000000000E+00  0.0000000000000E+00
246  2.4500000000000E+00  0.0000000000000E+00  0.0000000000000E+00
247  2.4600000000000E+00  0.0000000000000E+00  0.0000000000000E+00
248  2.4700000000000E+00  0.0000000000000E+00  0.0000000000000E+00
249  2.4800000000000E+00  0.0000000000000E+00  0.0000000000000E+00
250  2.4900000000000E+00  0.0000000000000E+00  0.0000000000000E+00
251  2.5000000000000E+00  0.0000000000000E+00  0.0000000000000E+00
252  2.5100000000000E+00  0.0000000000000E+00  0.0000000000000E+00
253  2.5200000000000E+00  0.0000000000000E+00  0.0000000000000E+00
254  2.5300000000000E+00  0.0000000000000E+00  0.0000000000000E+00
255  2.5400000000000E+00  0.0000000000000E+00  0.0000000000000E+00
256  2.5500000000000E+00  0.0000000000000E+00  0.0000000000000E+00
257  2.5600000000000E+00  0.0000000000000E+00  0.0000000000000E+00
258  2.5700000000000E+00  0.0000000000000E+00  0.0000000000000E+00
259  2.5800000000000E+00  0.0000000000000E+00  0.0000000000000E+00
260  2.5900000000000E+00  0.0000000000000E+00  0.0000000000000E+00
261  2.6000000000000E+00  0.0000000000000E+00  0.0000000000000E+00
262  2.6100000000000E+00  0.0000000000000E+00  0.0000000000000E+00
263  2.6200000000000E+00  0.0000000000000E+00  0.0000000000000E+00
264  2.6300000000000E+00  0.0000000000000E+00  0.0000000000000E+00
265  2.6400000000000E+00  0.0000000000000E+00  0.0000000000000E+00
266  2.6500000000000E+00  0.0000000000000E+00  0.0000000000000E+00
267  2.6600000000000E+00  0.0000000000000E+00  0.0000000000000E+00
268  2.6700000000000E+00  0.0000000000000E+00  0.0000000000000E+00
269  2.6800000000000E+00  0.0000000000000E+00  0.0000000000000E+00
270  2.6900000000000E+00  0.0000000000000E+00  0.0000000000000E+00
271  2.7000000000000E+00  0.0000000000000E+00  0.0000000000000E+00
272  2.7100000000000E+00  0.0000000000000E+00  0.0000000000000E+00
273  2.7200000000000E+00  0.0000000000000E+00  0.0000000000000E+00
274  2.7300000000000E+00  0.0000000000000E+00  0.0000000000000E+00
275  2.7400000000000E+00  0.0000000000000E+00  0.0000000000000E+00
276  2.7500000000000E+00  0.0000000000000E+00  0.0000000000000E+00
277  2.7600000000000E+00  0.0000000000000E+00  0.0000000000000E+00
278  2.7700000000000E+00  0.0000000000000E+00  0.0000000000000E+00
279  2.7800000000000E+00  0.0000000000000E+00  0.0000000000000E+00
280  2.7900000000000E+00  0.0000000000000E+00  0.0000000000000E+00
281  2.8000000000000E+00  0.0000000000000E+00  0.0000000000000E+00
282  2.8100000000000E+00  0.0000000000000E+00  0.0000000000000E+00
283  2.8200000000000E+00  0.0000000000000E+00  0.0000000000000E+00
284  2.8300000000000E+00  0.0000000000000E+00  0.0000000000000E+00
285  2.8400000000000E+00  0.0000000000000E+00  0.0000000000000E+00
286  2.8500000000000E+00  0.0000000000000E+00  0.0000000000000E+00
287  2.8600000000000E+00  0.0000000000000E+00  0.0000000000000E+00
288  2.8700000000000E+00  0.0000000000000E+00  0.0000000000000E+00
289  2.8800000000000E+00  0.0000000000000E+00  0.0000000000000E+00
290  2.8900000000000E+00  0.0000000000000E+00  0.0000000000000E+00
291  2.9000000000000E+00  0.0000000000000E+00  0.0000000000000E+00
292  2.9100000000000E+00  0.0000000000000E+00  0.0000000000000E+00
293  2.9200000000000E+00  0.0000000000000E+00  0.0000000000000E+00
294  2.9300000000000E+00  0.0000000000000E+00  0.0000000000000E+00
295  2.9400000000000E+00  0.0000000000000E+00  0.0000000000000E+00
296  2.9500000000000E+00  0.0000000000000E+00  0.0000000000000E+00
297  2.9600000000000E+00  0.0000000000000E+00  0.0000000000000E+00
298  2.9700000000000E+00  0.0000000000000E+00  0.0000000000000E+00
299  2.9800000000000E+00  0.0000000000000E+00  0.0000000000000E+00
300  2.9900000000000E+00  0.0000000000000E+00  0.0000000000000E+00
301  3.0000000000000E+00  0.0000000000000E+00  0.0000000000000E+00
302  3.0100000000000E+00  0.0000000000000E+00  0.0000000000000E+00
303  3.0200000000000E+00  0.0000000000000E+00  0.0000000000000E+00
304  3.0300000000000E+00  0.0000000000000E+00  0.0000000000000E+00
305  3.0400000000000E+00  0.0000000000000E+00  0.0000000000000E+00
306  3.0500000000000E+00  0.0000000000000E+00  0.0000000000000E+00
307  3.0600000000000E+00  0.0000000000000E+00  0.0000000000000E+00
308  3.0700000000000E+00  0.0000000000000E+00  0.0000000000000E+00
309  3.0800000000000E+00  0.0000000000000E+00  0.0000000000000E+00
310  3.0900000000000E+00  0.0000000000000E+00  0.0000000000000E+00
311  3.1000000000000E+00  0.0000000000000E+00  0.0000000000000E+00
312  3.1100000000000E+00  0.0000000000000E+00  0.0000000000000E+00
313  3.1200000000000E+00  0.0000000000000E+00  0.0000000000000E+00
314  3.1300000000000E+00  0.0000000000000E+00  0.0000000000000E+00
315  3.1400000000000E+00  0.0000000000000E+00  0.0000000000000E+00
316  3.1500000000000E+00  0.0000000000000E+00  0.0000000000000E+00
317  3.1600000000000E+00  0.0000000000000E+00  0.0000000000000E+00
318  3.1700000000000E+00  0.0000000000000E+00  0.0000000000000E+00
319  3.1800000000000E+00  0.0000000000000E+00  0.0000000000000E+00
320  3.1900000000000E+00  0.0000000000000E+00  0.0000000000000E+00
321  3.2000000000000E+00  0.0000000000000E+00  0.0000000000000E+00
322  3.2100000000000E+00  0.0000000000000E+00  0.0000000000000E+00
323  3.2200000000000E+00  0.0000000000000E+00  0.0000000000000E+00
324  3.2300000000000E+00  0.0000000000000E+00  0.0000000000000E+00
325  3.2400000000000E+00  0.0000000000000E+00  0.0000000000000E+00
326  3.2500000000000E+00  0.0000000000000E+00  0.0000000000000E+00
327  3.2600000000000E+00  0.0000000000000E+00  0.0000000000000E+00
328  3.2700000000000E+00  0.0000000000000E+00  0.0000000000000E+00
329  3.2800000000000E+00  0.0000000000000E+00  0.0000000000000E+00
330  3.2900000000000E+00  0.0000000000000E+00  0.0000000000000E+00
331  3.3000000000000E+00  0.0000000000000E+00  0.0000000000000E+00
332  3.3100000000000E+00  0.0000000000000E+00  0.0000000000000E+00
333  3.3200000000000E+00  0.0000000000000E+00  0.0000000000000E+00
334  3.3300000000000E+00  0.0000000000000E+00  0.0000000000000E+00
335  3.3400000000000E+00  0.0000000000000E+00  0.0000000000000E+00
336  3.3500000000000E+00  0.0000000000000E+00  0.0000000000000E+00
337  3.3600000000000E+00  0.0000000000000E+00  0.0000000000000E+00
338  3.3700000000000E+00  0.0000000000000E+00  0.0000000000000E+00
339  3.3800000000000E+00  0.0000000000000E+00  0.0000000000000E+00
340  3.3900000000000E+00  0.0000000000000E+00  0.0000000000000E+00
341  3.4000000000000E+00  0.0000000000000E+00  0.0000000000000E+00
342  3.4100000000000E+00  0.0000000000000E+00  0.0000000000000E+00
343  3.4200000000000E+00  0.0000000000000E+00  0.0000000000000E+00
344  3.4300000000000E+00  0.0000000000000E+00  0.0000000000000E+00
345  3.4400000000000E+00  0.0000000000000E+00  0.0000000000000E+00
346  3.4500000000000E+00  0.0000000000000E+00  0.0000000000000E+00
347  3.4600000000000E+00  0.0000000000000E+00  0.0000000000000E+00
348  3.4700000000000E+00  0.0000000000000E+00  0.0000000000000E+00
349  3.4800000000000E+00  0.0000000000000E+00  0.0000000000000E+00
350  3.4900000000000E+00  0.0000000000000E+00  0.0000000000000E+00
351  3.5000000000000E+00  0.0000000000000E+00  0.0000000000000E+00
352  3.5100000000000E+00  0.0000000000000E+00  0.0000000000000E+00
353  3.5200000000000E+00  0.0000000000000E+00  0.0000000000000E+00
354  3.5300000000000E+00  0.0000000000000E+00  0.0000000000000E+00
355  3.5400000000000E+00  0.0000000000000E+00  0.0000000000000E+00
356  3.5500000000000E+00  0.0000000000000E+00  0.0000000000000E+00
357  3.5600000000000E+00  0.0000000000000E+00  0.0000000000000E+00
358  3.5700000000000E+00  0.0000000000000E+00  0.0000000000000E+00
359  3.5800000000000E+00  0.0000000000000E+00  0.0000000000000E+00
360  3.5900000000000E+00  0.0000000000000E+00  0.0000000000000E+00
361  3.6000000000000E+00  0.0000000000000E+00  0.0000000000000E+00
362  3.6100000000000E+00  0.0000000000000E+00  0.0000000000000E+00
363  3.6200000000000E+00  0.0000000000000E+00  0.0000000000000E+00
364  3.6300000000000E+00  0.0000000000000E+00  0.0000000000000E+00
365  3.6400000000000E+00  0.0000000000000E+00  0.0000000000000E+00
366  3.6500000000000E+00  0.0000000000000E+00  0.0000000000000E+00
367  3.6600000000000E+00  0.0000000000000E+00  0.0000000000000E+00
368  3.6700000000000E+00  0.0000000000000E+00  0.0000000000000E+00
369  3.6800000000000E+00  0.0000000000000E+00  0.0000000000000E+00
370  3.6900000000000E+00  0.0000000000000E+00  0.0000000000000E+00
371  3.7000000000000E+00  0.0000000000000E+00  0.0000000000000E+00
372  3.7100000000000E+00  0.0000000000000E+00  0.0000000000000E+00
373  3.7200000000000E+00  0.0000000000000E+00  0.0000000000000E+00
374  3.7300000000000E+00  0.0000000000000E+00  0.0000000000000E+00
375  3.7400000000000E+00  0.0000000000000E+00  0.0000000000000E+00
376  3.7500000000000E+00  0.0000000000000E+00  0.0000000000000E+00
377  3.7600000000000E+00  0.0000000000000E+00  0.0000000000000E+00
378  3.7700000000000E+00  0.0000000000000E+00  0.0000000000000E+00
379  3.7800000000000E+00  0.0000000000000E+00  0.0000000000000E+00
380  3.7900000000000E+00  0.0000000000000E+00  0.0000000000000E+00
381  3.8000000000000E+00  0.0000000000000E+00  0.0000000000000E+00
382  3.8100000000000E+00  0.0000000000000E+00  0.0000000000000E+00
383  3.8200000000000E+00  0.0000000000000E+00  0.0000000000000E+00
384  3.8300000000000E+00  0.0000000000000E+00  0.0000000000000E+00
385  3.8400000000000E+00  0.0000000000000E+00  0.0000000000000E+00
386  3.8500000000000E+00  0.0000000000000E+00  0.0000000000000E+00
387  3.8600000000000E+00  0.0000000000000E+00  0.0000000000000E+00
388  3.8700000000000E+00  0.0000000000000E+00  0.0000000000000E+00
389  3.8800000000000E+00  0.0000000000000E+00  0.0000000000000E+00
390  3.8900000000000E+00  0.0000000000000E+00  0.0000000000000E+00
391  3.9000000000000E+00  0.0000000000000E+00  0.0000000000000E+00
392  3.9100000000000E+00  0.0000000000000E+00  0.0000000000000E+00
393  3.9200000000000E+00  0.0000000000000E+00  0.0000000000000E+00
394  3.9300000000000E+00  0.0000000000000E+00  0.0000000000000E+00
395  3.9400000000000E+00  0.0000000000000E+00  0.0000000000000E+00
396  3.9500000000000E+00  0.0000000000000E+00  0.0000000000000E+00
397  3.9600000000000E+00  0.0000000000000E+00  0.0000000000000E+00
398  3.9700000000000E+00  0.0000000000000E+00  0.0000000000000E+00
399  3.9800000000000E+00  0.0000000000000E+00  0.0000000000000E+00
400  3.9900000000000E+00  0.0000000000000E+00  0.0000000000000E+00
401  4.0000000000000E+00  0.0000000000000E+00  0.0000000000000E+00
402  4.0100000000000E+00  0.0000000000000E+00  0.0000000000000E+00
403  4.0200000000000E+00  0.0000000000000E+00  0.0000000000000E+00
404  4.0300000000000E+00  0.0000000000000E+00  0.0000000000000E+00
405  4.0400000000000E+00  0.0000000000000E+00  0.0000000000000E+00
406  4.0500000000000E+00  0.0000000000000E+00  0.0000000000000E+00
407  4.0600000000000E+00  0.0000000000000E+00  0.0000000000000E+00
408  4.0700000000000E+00  0.0000000000000E+00  0.0000000000000E+00
409  4.0800000000000E+00  0.0000000000000E+00  0.0000000000000E+00
410  4.0900000000000E+00  0.0000000000000E+00  0.0000000000000E+00
411  4.1000000000000E+00  0.0000000000000E+00  0.0000000000000E+00
412  4.1100000000000E+00  0.0000000000000E+00  0.0000000000000E+00
413  4.1200000000000E+00  0.0000000000000E+00  0.0000000000000E+00
414  4.1300000000000E+00  0.0000000000000E+00  0.0000000000000E+00
415  4.1400000000000E+00  0.0000000000000E+00  0.0000000000000E+00
416  4.1500000000000E+00  0.0000000000000E+00  0.0000000000000E+00
417  4.1600000000000E+00  0.0000000000000E+00  0.0000000000000E+00
418  4.1700000000000E+00  0.0000000000000E+00  0.0000000000000E+00
419  4.1800000000000E+00  0.0000000000000E+00  0.0000000000000E+00
420  4.1900000000000E+00  0.0000000000000E+00  0.0000000000000E+00
421  4.2000000000000E+00  0.0000000000000E+00  0.0000000000000E+00
422  4.2100000000000E+00  0.0000000000000E+00  0.0000000000000E+00
423  4.2200000000000E+00  0.0000000000000E+00  0.0000000000000E+00
424  4.2300000000000E+00  0.0000000000000E+00  0.0000000000000E+00
425  4.2400000000000E+00  0.0000000000000E+00  0.0000000000000E+00
426  4.2500000000000E+00  0.0000000000000E+00  0.0000000000000E+00
427  4.2600000000000E+00  0.0000000000000E+00  0.0000000000000E+00
428  4.2700000000000E+00  0.0000000000000E+00  0.0000000000000E+00
429  4.2800000000000E+00  0.0000000000000E+00  0.0000000000000E+00
430  4.2900000000000E+00  0.0000000000000E+00  0.0000000000000E+00
431  4.3000000000000E+00  0.0000000000000E+00  0.0000000000000E+00
432  4.3100000000000E+00  0.0000000000000E+00  0.0000000000000E+00
433  4.3200000000000E+00  0.0000000000000E+00  0.0000000000000E+00
434  4.3300000000000E+00  0.0000000000000E+00  0.0000000000000E+00
435  4.3400000000000E+00  0.0000000000000E+00  0.0000000000000E+00
436  4.3500000000000E+00  0.0000000000000E+00  0.0000000000000E+00
437  4.3600000000000E+00  0.0000000000000E+00  0.0000000000000E+00
438  4.3700000000000E+00  0.0000000000000E+00  0.0000000000000E+00
439  4.3800000000000E+00  0.0000000000000E+00  0.0000000000000E+00
440  4.3900000000000E+00  0.0000000000000E+00  0.0000000000000E+00
441  4.4000000000000E+00  0.0000000000000E+00  0.0000000000000E+00
442  4.4100000000000E+00  0.0000000000000E+00  0.0000000000000E+00
443  4.4200000000000E+00  0.0000000000000E+00  0.0000000000000E+00