Mo    ONCVPSP-3.2.3.1  r_core=   1.45541   1.45541   1.35488
42.0000     14.0000      170510    zatom,zion,pspd
8      11   2     4   600     0    pspcod,pspxc,lmax,lloc,mmax,r2well
5.99000000  3.00000000  0.00000000    rchrg fchrg qchrg
2     2     2     0     0    nproj
1     1           extension_switch
0                         1.3833286793978E+01  1.3506869863398E+00
1  0.0000000000000E+00  1.8251194999763E-10 -4.8342976843863E-10
2  1.0000000000000E-02  5.5879310153415E-02 -1.8128247496210E-02
3  2.0000000000000E-02  1.1171786525318E-01 -3.6280676816297E-02
4  3.0000000000000E-02  1.6747450997177E-01 -5.4480309424115E-02
5  4.0000000000000E-02  2.2310729353943E-01 -7.2747859488160E-02
6  5.0000000000000E-02  2.7857308474028E-01 -9.1100613672350E-02
7  6.0000000000000E-02  3.3382720203919E-01 -1.0955135070877E-01
8  7.0000000000000E-02  3.8882306366738E-01 -1.2810731344235E-01
9  8.0000000000000E-02  4.4351186231235E-01 -1.4676924555398E-01
10  9.0000000000000E-02  4.9784226883236E-01 -1.6553050457163E-01
11  1.0000000000000E-01  5.5176016914903E-01 -1.8437626207298E-01
12  1.1000000000000E-01  6.0520843816638E-01 -2.0328280117394E-01
13  1.2000000000000E-01  6.5812675422278E-01 -2.2221692049123E-01
14  1.3000000000000E-01  7.1045145720654E-01 -2.4113545277177E-01
15  1.4000000000000E-01  7.6211545305978E-01 -2.5998490530441E-01
16  1.5000000000000E-01  8.1304816696138E-01 -2.7870122807958E-01
17  1.6000000000000E-01  8.6317554702279E-01 -2.9720971444961E-01
18  1.7000000000000E-01  9.1242011985256E-01 -3.1542503777554E-01
19  1.8000000000000E-01  9.6070109885240E-01 -3.3325142623713E-01
20  1.9000000000000E-01  1.0079345456018E+00 -3.5058297664163E-01
21  2.0000000000000E-01  1.0540335841756E+00 -3.6730410670520E-01
22  2.1000000000000E-01  1.0989086677212E+00 -3.8329014391037E-01
23  2.2000000000000E-01  1.1424678961088E+00 -3.9840804767572E-01
24  2.3000000000000E-01  1.1846173829560E+00 -4.1251726022143E-01
25  2.4000000000000E-01  1.2252616698296E+00 -4.2547068018904E-01
26  2.5000000000000E-01  1.2643041849410E+00 -4.3711575178781E-01
27  2.6000000000000E-01  1.3016477431865E+00 -4.4729566100392E-01
28  2.7000000000000E-01  1.3371950839368E+00 -4.5585062923631E-01
29  2.8000000000000E-01  1.3708494425673E+00 -4.6261929362256E-01
30  2.9000000000000E-01  1.4025151513324E+00 -4.6744016230356E-01
31  3.0000000000000E-01  1.4320982648348E+00 -4.7015313195374E-01
32  3.1000000000000E-01  1.4595072050324E+00 -4.7060105408731E-01
33  3.2000000000000E-01  1.4846534204479E+00 -4.6863133594586E-01
34  3.3000000000000E-01  1.5074520540229E+00 -4.6409756118918E-01
35  3.4000000000000E-01  1.5278226138754E+00 -4.5686111515469E-01
36  3.5000000000000E-01  1.5456896410870E+00 -4.4679279912834E-01
37  3.6000000000000E-01  1.5609833685664E+00 -4.3377441788607E-01
38  3.7000000000000E-01  1.5736403650030E+00 -4.1770032472314E-01
39  3.8000000000000E-01  1.5836041579510E+00 -3.9847890829188E-01
40  3.9000000000000E-01  1.5908258301564E+00 -3.7603400581907E-01
41  4.0000000000000E-01  1.5952645833730E+00 -3.5030622766955E-01
42  4.1000000000000E-01  1.5968882640923E+00 -3.2125417876463E-01
43  4.2000000000000E-01  1.5956738458475E+00 -2.8885556304794E-01
44  4.3000000000000E-01  1.5916078630374E+00 -2.5310815801404E-01
45  4.4000000000000E-01  1.5846867915460E+00 -2.1403064727129E-01
46  4.5000000000000E-01  1.5749173718159E+00 -1.7166330019340E-01
47  4.6000000000000E-01  1.5623168704535E+00 -1.2606848891618E-01
48  4.7000000000000E-01  1.5469132769089E+00 -7.7331034247252E-02
49  4.8000000000000E-01  1.5287454322698E+00 -2.5558373467603E-02
50  4.9000000000000E-01  1.5078630877439E+00  2.9119455496535E-02
51  5.0000000000000E-01  1.4843268909609E+00  8.6550017479127E-02
52  5.1000000000000E-01  1.4582082988110E+00  1.4655887336817E-01
53  5.2000000000000E-01  1.4295894161367E+00  2.0895016391368E-01
54  5.3000000000000E-01  1.3985627602129E+00  2.7350738295891E-01
55  5.4000000000000E-01  1.3652309515691E+00  3.3999433726953E-01
56  5.5000000000000E-01  1.3297063323387E+00  4.0815628839885E-01
57  5.6000000000000E-01  1.2921105139366E+00  4.7772127030612E-01
58  5.7000000000000E-01  1.2525738564859E+00  5.4840157475750E-01
59  5.8000000000000E-01  1.2112348830093E+00  6.1989539489326E-01
60  5.9000000000000E-01  1.1682396319798E+00  6.9188861577380E-01
61  6.0000000000000E-01  1.1237409523820E+00  7.6405673921244E-01
62  6.1000000000000E-01  1.0778977459523E+00  8.3606692880765E-01
63  6.2000000000000E-01  1.0308741617564E+00  9.0758015979125E-01
64  6.3000000000000E-01  9.8283874870518E-01  9.7825345714366E-01
65  6.4000000000000E-01  9.3396357201046E-01  1.0477422043980E+00
66  6.5000000000000E-01  8.8442329993347E-01  1.1157025046708E+00
67  6.6000000000000E-01  8.3439426747315E-01  1.1817935747385E+00
68  6.7000000000000E-01  7.8405352388469E-01  1.2456801524235E+00
69  6.8000000000000E-01  7.3357787109844E-01  1.3070348971791E+00
70  6.9000000000000E-01  6.8314290023034E-01  1.3655407635654E+00
71  7.0000000000000E-01  6.3292203343151E-01  1.4208933273023E+00
72  7.1000000000000E-01  5.8308557831858E-01  1.4728030437668E+00
73  7.2000000000000E-01  5.3379980215490E-01  1.5209974191713E+00
74  7.3000000000000E-01  4.8522603281763E-01  1.5652230752175E+00
75  7.4000000000000E-01  4.3751979338691E-01  1.6052476887707E+00
76  7.5000000000000E-01  3.9082997693440E-01  1.6408617890122E+00
77  7.6000000000000E-01  3.4529806776648E-01  1.6718803956357E+00
78  7.7000000000000E-01  3.0105741500203E-01  1.6981444829089E+00
79  7.8000000000000E-01  2.5823256393310E-01  1.7195222558364E+00
80  7.9000000000000E-01  2.1693865013664E-01  1.7359102262183E+00
81  8.0000000000000E-01  1.7728086077897E-01  1.7472340780793E+00
82  8.1000000000000E-01  1.3935396698815E-01  1.7534493137405E+00
83  8.2000000000000E-01  1.0324193056710E-01  1.7545416736940E+00
84  8.3000000000000E-01  6.9017587688529E-02  1.7505273254088E+00
85  8.4000000000000E-01  3.6742411557309E-02  1.7414528182220E+00
86  8.5000000000000E-01  6.4663553532737E-03  1.7273948035314E+00
87  8.6000000000000E-01 -2.1772223916356E-02  1.7084595215884E+00
88  8.7000000000000E-01 -4.7946560713065E-02  1.6847820582688E+00
89  8.8000000000000E-01 -7.2041396155054E-02  1.6565253772540E+00
90  8.9000000000000E-01 -9.4052814515914E-02  1.6238791350640E+00
91  9.0000000000000E-01 -1.1398800311219E-01  1.5870582883290E+00
92  9.1000000000000E-01 -1.3186493829484E-01  1.5463015045446E+00
93  9.2000000000000E-01 -1.4771200086689E-01  1.5018693893085E+00
94  9.3000000000000E-01 -1.6156752482214E-01  1.4540425446633E+00
95  9.4000000000000E-01 -1.7347928383107E-01  1.4031194746615E+00
96  9.5000000000000E-01 -1.8350392038478E-01  1.3494143555910E+00
97  9.6000000000000E-01 -1.9170632294180E-01  1.2932546894619E+00
98  9.7000000000000E-01 -1.9815895680009E-01  1.2349788603217E+00
99  9.8000000000000E-01 -2.0294115473550E-01  1.1749336137418E+00
100  9.9000000000000E-01 -2.0613837370355E-01  1.1134714803830E+00
101  1.0000000000000E+00 -2.0784142408889E-01  1.0509481649020E+00
102  1.0100000000000E+00 -2.0814567811599E-01  9.8771992160517E-01
103  1.0200000000000E+00 -2.0715026408349E-01  9.2414093815986E-01
104  1.0300000000000E+00 -2.0495725307311E-01  8.6056074837768E-01
105  1.0400000000000E+00 -2.0167084470311E-01  7.9732169456553E-01
106  1.0500000000000E+00 -1.9739655833238E-01  7.3475645915158E-01
107  1.0600000000000E+00 -1.9224043593423E-01  6.7318568446596E-01
108  1.0700000000000E+00 -1.8630826254760E-01  6.1291569828215E-01
109  1.0800000000000E+00 -1.7970480989160E-01  5.5423636147279E-01
110  1.0900000000000E+00 -1.7253310833309E-01  4.9741905262875E-01
111  1.1000000000000E+00 -1.6489375190884E-01  4.4271480268899E-01
112  1.1100000000000E+00 -1.5688424070941E-01  3.9035259118853E-01
113  1.1200000000000E+00 -1.4859836426499E-01  3.4053781334420E-01
114  1.1300000000000E+00 -1.4012562909824E-01  2.9345092552482E-01
115  1.1400000000000E+00 -1.3155073290963E-01  2.4924627420905E-01
116  1.1500000000000E+00 -1.2295308739398E-01  2.0805111191482E-01
117  1.1600000000000E+00 -1.1440639086575E-01  1.6996480076542E-01
118  1.1700000000000E+00 -1.0597825132754E-01  1.3505820251836E-01
119  1.1800000000000E+00 -9.7729859862393E-02  1.0337325134574E-01
120  1.1900000000000E+00 -8.9715713817711E-02  7.4922704263187E-02
121  1.2000000000000E+00 -8.1983388290324E-02  4.9690060925113E-02
122  1.2100000000000E+00 -7.4573353979446E-02  2.7629643065827E-02
123  1.2200000000000E+00 -6.7518838005354E-02  8.6668174093061E-03
124  1.2300000000000E+00 -6.0845730509796E-02 -7.3016217080744E-03
125  1.2400000000000E+00 -5.4572506725351E-02 -2.0407056638505E-02
126  1.2500000000000E+00 -4.8710290565559E-02 -3.0808017006353E-02
127  1.2600000000000E+00 -4.3262602714798E-02 -3.8690761986976E-02
128  1.2700000000000E+00 -3.8225774064298E-02 -4.4266613289678E-02
129  1.2800000000000E+00 -3.3590433433518E-02 -4.7763934911080E-02
130  1.2900000000000E+00 -2.9343269933632E-02 -4.9419425499218E-02
131  1.3000000000000E+00 -2.5468441957357E-02 -4.9471471720910E-02
132  1.3100000000000E+00 -2.1947930731436E-02 -4.8159036933509E-02
133  1.3200000000000E+00 -1.8762246000012E-02 -4.5718745510339E-02
134  1.3300000000000E+00 -1.5891055324402E-02 -4.2382381733717E-02
135  1.3400000000000E+00 -1.3313814558809E-02 -3.8374393401573E-02
136  1.3500000000000E+00 -1.1010371534776E-02 -3.3909528229895E-02
137  1.3600000000000E+00 -8.9615463430871E-03 -2.9190574856702E-02
138  1.3700000000000E+00 -7.1496799710472E-03 -2.4406239242234E-02
139  1.3800000000000E+00 -5.5591452376202E-03 -1.9729177018222E-02
140  1.3900000000000E+00 -4.1768142001162E-03 -1.5314201856727E-02
141  1.4000000000000E+00 -2.9924799090075E-03 -1.1296672636278E-02
142  1.4100000000000E+00 -1.9996791714928E-03 -7.7935050249713E-03
143  1.4200000000000E+00 -1.1938671131276E-03 -4.8906043840020E-03
144  1.4300000000000E+00 -5.7402430705807E-04 -2.6423706052046E-03
145  1.4400000000000E+00 -1.5323194349374E-04 -1.1739093193327E-03
146  1.4500000000000E+00  6.4098793816897E-05 -4.6596112419318E-04
147  1.4600000000000E+00  9.3388131605268E-05 -1.6584786190882E-04
148  1.4700000000000E+00  2.0659671197844E-05 -2.1816176284068E-05
149  1.4800000000000E+00 -1.5885976115809E-05  1.3110388412720E-05
150  1.4900000000000E+00 -1.2412009470518E-06  8.3507061797760E-07
151  1.5000000000000E+00  3.2830777409638E-06 -3.5390147314593E-06
152  1.5100000000000E+00 -9.0962842723365E-08  2.5068219813766E-07
153  1.5200000000000E+00 -2.5427454742577E-07  7.0074879556041E-07
154  1.5300000000000E+00  0.0000000000000E+00  0.0000000000000E+00
155  1.5400000000000E+00  0.0000000000000E+00  0.0000000000000E+00
156  1.5500000000000E+00  0.0000000000000E+00  0.0000000000000E+00
157  1.5600000000000E+00  0.0000000000000E+00  0.0000000000000E+00
158  1.5700000000000E+00  0.0000000000000E+00  0.0000000000000E+00
159  1.5800000000000E+00  0.0000000000000E+00  0.0000000000000E+00
160  1.5900000000000E+00  0.0000000000000E+00  0.0000000000000E+00
161  1.6000000000000E+00  0.0000000000000E+00  0.0000000000000E+00
162  1.6100000000000E+00  0.0000000000000E+00  0.0000000000000E+00
163  1.6200000000000E+00  0.0000000000000E+00  0.0000000000000E+00
164  1.6300000000000E+00  0.0000000000000E+00  0.0000000000000E+00
165  1.6400000000000E+00  0.0000000000000E+00  0.0000000000000E+00
166  1.6500000000000E+00  0.0000000000000E+00  0.0000000000000E+00
167  1.6600000000000E+00  0.0000000000000E+00  0.0000000000000E+00
168  1.6700000000000E+00  0.0000000000000E+00  0.0000000000000E+00
169  1.6800000000000E+00  0.0000000000000E+00  0.0000000000000E+00
170  1.6900000000000E+00  0.0000000000000E+00  0.0000000000000E+00
171  1.7000000000000E+00  0.0000000000000E+00  0.0000000000000E+00
172  1.7100000000000E+00  0.0000000000000E+00  0.0000000000000E+00
173  1.7200000000000E+00  0.0000000000000E+00  0.0000000000000E+00
174  1.7300000000000E+00  0.0000000000000E+00  0.0000000000000E+00
175  1.7400000000000E+00  0.0000000000000E+00  0.0000000000000E+00
176  1.7500000000000E+00  0.0000000000000E+00  0.0000000000000E+00
177  1.7600000000000E+00  0.0000000000000E+00  0.0000000000000E+00
178  1.7700000000000E+00  0.0000000000000E+00  0.0000000000000E+00
179  1.7800000000000E+00  0.0000000000000E+00  0.0000000000000E+00
180  1.7900000000000E+00  0.0000000000000E+00  0.0000000000000E+00
181  1.8000000000000E+00  0.0000000000000E+00  0.0000000000000E+00
182  1.8100000000000E+00  0.0000000000000E+00  0.0000000000000E+00
183  1.8200000000000E+00  0.0000000000000E+00  0.0000000000000E+00
184  1.8300000000000E+00  0.0000000000000E+00  0.0000000000000E+00
185  1.8400000000000E+00  0.0000000000000E+00  0.0000000000000E+00
186  1.8500000000000E+00  0.0000000000000E+00  0.0000000000000E+00
187  1.8600000000000E+00  0.0000000000000E+00  0.0000000000000E+00
188  1.8700000000000E+00  0.0000000000000E+00  0.0000000000000E+00
189  1.8800000000000E+00  0.0000000000000E+00  0.0000000000000E+00
190  1.8900000000000E+00  0.0000000000000E+00  0.0000000000000E+00
191  1.9000000000000E+00  0.0000000000000E+00  0.0000000000000E+00
192  1.9100000000000E+00  0.0000000000000E+00  0.0000000000000E+00
193  1.9200000000000E+00  0.0000000000000E+00  0.0000000000000E+00
194  1.9300000000000E+00  0.0000000000000E+00  0.0000000000000E+00
195  1.9400000000000E+00  0.0000000000000E+00  0.0000000000000E+00
196  1.9500000000000E+00  0.0000000000000E+00  0.0000000000000E+00
197  1.9600000000000E+00  0.0000000000000E+00  0.0000000000000E+00
198  1.9700000000000E+00  0.0000000000000E+00  0.0000000000000E+00
199  1.9800000000000E+00  0.0000000000000E+00  0.0000000000000E+00
200  1.9900000000000E+00  0.0000000000000E+00  0.0000000000000E+00
201  2.0000000000000E+00  0.0000000000000E+00  0.0000000000000E+00
202  2.0100000000000E+00  0.0000000000000E+00  0.0000000000000E+00
203  2.0200000000000E+00  0.0000000000000E+00  0.0000000000000E+00
204  2.0300000000000E+00  0.0000000000000E+00  0.0000000000000E+00
205  2.0400000000000E+00  0.0000000000000E+00  0.0000000000000E+00
206  2.0500000000000E+00  0.0000000000000E+00  0.0000000000000E+00
207  2.0600000000000E+00  0.0000000000000E+00  0.0000000000000E+00
208  2.0700000000000E+00  0.0000000000000E+00  0.0000000000000E+00
209  2.0800000000000E+00  0.0000000000000E+00  0.0000000000000E+00
210  2.0900000000000E+00  0.0000000000000E+00  0.0000000000000E+00
211  2.1000000000000E+00  0.0000000000000E+00  0.0000000000000E+00
212  2.1100000000000E+00  0.0000000000000E+00  0.0000000000000E+00
213  2.1200000000000E+00  0.0000000000000E+00  0.0000000000000E+00
214  2.1300000000000E+00  0.0000000000000E+00  0.0000000000000E+00
215  2.1400000000000E+00  0.0000000000000E+00  0.0000000000000E+00
216  2.1500000000000E+00  0.0000000000000E+00  0.0000000000000E+00
217  2.1600000000000E+00  0.0000000000000E+00  0.0000000000000E+00
218  2.1700000000000E+00  0.0000000000000E+00  0.0000000000000E+00
219  2.1800000000000E+00  0.0000000000000E+00  0.0000000000000E+00
220  2.1900000000000E+00  0.0000000000000E+00  0.0000000000000E+00
221  2.2000000000000E+00  0.0000000000000E+00  0.0000000000000E+00
222  2.2100000000000E+00  0.0000000000000E+00  0.0000000000000E+00
223  2.2200000000000E+00  0.0000000000000E+00  0.0000000000000E+00
224  2.2300000000000E+00  0.0000000000000E+00  0.0000000000000E+00
225  2.2400000000000E+00  0.0000000000000E+00  0.0000000000000E+00
226  2.2500000000000E+00  0.0000000000000E+00  0.0000000000000E+00
227  2.2600000000000E+00  0.0000000000000E+00  0.0000000000000E+00
228  2.2700000000000E+00  0.0000000000000E+00  0.0000000000000E+00
229  2.2800000000000E+00  0.0000000000000E+00  0.0000000000000E+00
230  2.2900000000000E+00  0.0000000000000E+00  0.0000000000000E+00
231  2.3000000000000E+00  0.0000000000000E+00  0.0000000000000E+00
232  2.3100000000000E+00  0.0000000000000E+00  0.0000000000000E+00
233  2.3200000000000E+00  0.0000000000000E+00  0.0000000000000E+00
234  2.3300000000000E+00  0.0000000000000E+00  0.0000000000000E+00
235  2.3400000000000E+00  0.0000000000000E+00  0.0000000000000E+00
236  2.3500000000000E+00  0.0000000000000E+00  0.0000000000000E+00
237  2.3600000000000E+00  0.0000000000000E+00  0.0000000000000E+00
238  2.3700000000000E+00  0.0000000000000E+00  0.0000000000000E+00
239  2.3800000000000E+00  0.0000000000000E+00  0.0000000000000E+00
240  2.3900000000000E+00  0.0000000000000E+00  0.0000000000000E+00
241  2.4000000000000E+00  0.0000000000000E+00  0.0000000000000E+00
242  2.4100000000000E+00  0.0000000000000E+00  0.0000000000000E+00
243  2.4200000000000E+00  0.0000000000000E+00  0.0000000000000E+00
244  2.4300000000000E+00  0.0000000000000E+00  0.0000000000000E+00
245  2.4400000000000E+00  0.0000000000000E+00  0.0000000000000E+00
246  2.4500000000000E+00  0.0000000000000E+00  0.0000000000000E+00
247  2.4600000000000E+00  0.0000000000000E+00  0.0000000000000E+00
248  2.4700000000000E+00  0.0000000000000E+00  0.0000000000000E+00
249  2.4800000000000E+00  0.0000000000000E+00  0.0000000000000E+00
250  2.4900000000000E+00  0.0000000000000E+00  0.0000000000000E+00
251  2.5000000000000E+00  0.0000000000000E+00  0.0000000000000E+00
252  2.5100000000000E+00  0.0000000000000E+00  0.0000000000000E+00
253  2.5200000000000E+00  0.0000000000000E+00  0.0000000000000E+00
254  2.5300000000000E+00  0.0000000000000E+00  0.0000000000000E+00
255  2.5400000000000E+00  0.0000000000000E+00  0.0000000000000E+00
256  2.5500000000000E+00  0.0000000000000E+00  0.0000000000000E+00
257  2.5600000000000E+00  0.0000000000000E+00  0.0000000000000E+00
258  2.5700000000000E+00  0.0000000000000E+00  0.0000000000000E+00
259  2.5800000000000E+00  0.0000000000000E+00  0.0000000000000E+00
260  2.5900000000000E+00  0.0000000000000E+00  0.0000000000000E+00
261  2.6000000000000E+00  0.0000000000000E+00  0.0000000000000E+00
262  2.6100000000000E+00  0.0000000000000E+00  0.0000000000000E+00
263  2.6200000000000E+00  0.0000000000000E+00  0.0000000000000E+00
264  2.6300000000000E+00  0.0000000000000E+00  0.0000000000000E+00
265  2.6400000000000E+00  0.0000000000000E+00  0.0000000000000E+00
266  2.6500000000000E+00  0.0000000000000E+00  0.0000000000000E+00
267  2.6600000000000E+00  0.0000000000000E+00  0.0000000000000E+00
268  2.6700000000000E+00  0.0000000000000E+00  0.0000000000000E+00
269  2.6800000000000E+00  0.0000000000000E+00  0.0000000000000E+00
270  2.6900000000000E+00  0.0000000000000E+00  0.0000000000000E+00
271  2.7000000000000E+00  0.0000000000000E+00  0.0000000000000E+00
272  2.7100000000000E+00  0.0000000000000E+00  0.0000000000000E+00
273  2.7200000000000E+00  0.0000000000000E+00  0.0000000000000E+00
274  2.7300000000000E+00  0.0000000000000E+00  0.0000000000000E+00
275  2.7400000000000E+00  0.0000000000000E+00  0.0000000000000E+00
276  2.7500000000000E+00  0.0000000000000E+00  0.0000000000000E+00
277  2.7600000000000E+00  0.0000000000000E+00  0.0000000000000E+00
278  2.7700000000000E+00  0.0000000000000E+00  0.0000000000000E+00
279  2.7800000000000E+00  0.0000000000000E+00  0.0000000000000E+00
280  2.7900000000000E+00  0.0000000000000E+00  0.0000000000000E+00
281  2.8000000000000E+00  0.0000000000000E+00  0.0000000000000E+00
282  2.8100000000000E+00  0.0000000000000E+00  0.0000000000000E+00
283  2.8200000000000E+00  0.0000000000000E+00  0.0000000000000E+00
284  2.8300000000000E+00  0.0000000000000E+00  0.0000000000000E+00
285  2.8400000000000E+00  0.0000000000000E+00  0.0000000000000E+00
286  2.8500000000000E+00  0.0000000000000E+00  0.0000000000000E+00
287  2.8600000000000E+00  0.0000000000000E+00  0.0000000000000E+00
288  2.8700000000000E+00  0.0000000000000E+00  0.0000000000000E+00
289  2.8800000000000E+00  0.0000000000000E+00  0.0000000000000E+00
290  2.8900000000000E+00  0.0000000000000E+00  0.0000000000000E+00
291  2.9000000000000E+00  0.0000000000000E+00  0.0000000000000E+00
292  2.9100000000000E+00  0.0000000000000E+00  0.0000000000000E+00
293  2.9200000000000E+00  0.0000000000000E+00  0.0000000000000E+00
294  2.9300000000000E+00  0.0000000000000E+00  0.0000000000000E+00
295  2.9400000000000E+00  0.0000000000000E+00  0.0000000000000E+00
296  2.9500000000000E+00  0.0000000000000E+00  0.0000000000000E+00
297  2.9600000000000E+00  0.0000000000000E+00  0.0000000000000E+00
298  2.9700000000000E+00  0.0000000000000E+00  0.0000000000000E+00
299  2.9800000000000E+00  0.0000000000000E+00  0.0000000000000E+00
300  2.9900000000000E+00  0.0000000000000E+00  0.0000000000000E+00
301  3.0000000000000E+00  0.0000000000000E+00  0.0000000000000E+00
302  3.0100000000000E+00  0.0000000000000E+00  0.0000000000000E+00
303  3.0200000000000E+00  0.0000000000000E+00  0.0000000000000E+00
304  3.0300000000000E+00  0.0000000000000E+00  0.0000000000000E+00
305  3.0400000000000E+00  0.0000000000000E+00  0.0000000000000E+00
306  3.0500000000000E+00  0.0000000000000E+00  0.0000000000000E+00
307  3.0600000000000E+00  0.0000000000000E+00  0.0000000000000E+00
308  3.0700000000000E+00  0.0000000000000E+00  0.0000000000000E+00
309  3.0800000000000E+00  0.0000000000000E+00  0.0000000000000E+00
310  3.0900000000000E+00  0.0000000000000E+00  0.0000000000000E+00
311  3.1000000000000E+00  0.0000000000000E+00  0.0000000000000E+00
312  3.1100000000000E+00  0.0000000000000E+00  0.0000000000000E+00
313  3.1200000000000E+00  0.0000000000000E+00  0.0000000000000E+00
314  3.1300000000000E+00  0.0000000000000E+00  0.0000000000000E+00
315  3.1400000000000E+00  0.0000000000000E+00  0.0000000000000E+00
316  3.1500000000000E+00  0.0000000000000E+00  0.0000000000000E+00
317  3.1600000000000E+00  0.0000000000000E+00  0.0000000000000E+00
318  3.1700000000000E+00  0.0000000000000E+00  0.0000000000000E+00
319  3.1800000000000E+00  0.0000000000000E+00  0.0000000000000E+00
320  3.1900000000000E+00  0.0000000000000E+00  0.0000000000000E+00
321  3.2000000000000E+00  0.0000000000000E+00  0.0000000000000E+00
322  3.2100000000000E+00  0.0000000000000E+00  0.0000000000000E+00
323  3.2200000000000E+00  0.0000000000000E+00  0.0000000000000E+00
324  3.2300000000000E+00  0.0000000000000E+00  0.0000000000000E+00
325  3.2400000000000E+00  0.0000000000000E+00  0.0000000000000E+00
326  3.2500000000000E+00  0.0000000000000E+00  0.0000000000000E+00
327  3.2600000000000E+00  0.0000000000000E+00  0.0000000000000E+00
328  3.2700000000000E+00  0.0000000000000E+00  0.0000000000000E+00
329  3.2800000000000E+00  0.0000000000000E+00  0.0000000000000E+00
330  3.2900000000000E+00  0.0000000000000E+00  0.0000000000000E+00
331  3.3000000000000E+00  0.0000000000000E+00  0.0000000000000E+00
332  3.3100000000000E+00  0.0000000000000E+00  0.0000000000000E+00
333  3.3200000000000E+00  0.0000000000000E+00  0.0000000000000E+00
334  3.3300000000000E+00  0.0000000000000E+00  0.0000000000000E+00
335  3.3400000000000E+00  0.0000000000000E+00  0.0000000000000E+00
336  3.3500000000000E+00  0.0000000000000E+00  0.0000000000000E+00
337  3.3600000000000E+00  0.0000000000000E+00  0.0000000000000E+00
338  3.3700000000000E+00  0.0000000000000E+00  0.0000000000000E+00
339  3.3800000000000E+00  0.0000000000000E+00  0.0000000000000E+00
340  3.3900000000000E+00  0.0000000000000E+00  0.0000000000000E+00
341  3.4000000000000E+00  0.0000000000000E+00  0.0000000000000E+00
342  3.4100000000000E+00  0.0000000000000E+00  0.0000000000000E+00
343  3.4200000000000E+00  0.0000000000000E+00  0.0000000000000E+00
344  3.4300000000000E+00  0.0000000000000E+00  0.0000000000000E+00
345  3.4400000000000E+00  0.0000000000000E+00  0.0000000000000E+00
346  3.4500000000000E+00  0.0000000000000E+00  0.0000000000000E+00
347  3.4600000000000E+00  0.0000000000000E+00  0.0000000000000E+00
348  3.4700000000000E+00  0.0000000000000E+00  0.0000000000000E+00
349  3.4800000000000E+00  0.0000000000000E+00  0.0000000000000E+00
350  3.4900000000000E+00  0.0000000000000E+00  0.0000000000000E+00
351  3.5000000000000E+00  0.0000000000000E+00  0.0000000000000E+00
352  3.5100000000000E+00  0.0000000000000E+00  0.0000000000000E+00
353  3.5200000000000E+00  0.0000000000000E+00  0.0000000000000E+00
354  3.5300000000000E+00  0.0000000000000E+00  0.0000000000000E+00
355  3.5400000000000E+00  0.0000000000000E+00  0.0000000000000E+00
356  3.5500000000000E+00  0.0000000000000E+00  0.0000000000000E+00
357  3.5600000000000E+00  0.0000000000000E+00  0.0000000000000E+00
358  3.5700000000000E+00  0.0000000000000E+00  0.0000000000000E+00
359  3.5800000000000E+00  0.0000000000000E+00  0.0000000000000E+00
360  3.5900000000000E+00  0.0000000000000E+00  0.0000000000000E+00
361  3.6000000000000E+00  0.0000000000000E+00  0.0000000000000E+00
362  3.6100000000000E+00  0.0000000000000E+00  0.0000000000000E+00
363  3.6200000000000E+00  0.0000000000000E+00  0.0000000000000E+00
364  3.6300000000000E+00  0.0000000000000E+00  0.0000000000000E+00
365  3.6400000000000E+00  0.0000000000000E+00  0.0000000000000E+00
366  3.6500000000000E+00  0.0000000000000E+00  0.0000000000000E+00
367  3.6600000000000E+00  0.0000000000000E+00  0.0000000000000E+00
368  3.6700000000000E+00  0.0000000000000E+00  0.0000000000000E+00
369  3.6800000000000E+00  0.0000000000000E+00  0.0000000000000E+00
370  3.6900000000000E+00  0.0000000000000E+00  0.0000000000000E+00
371  3.7000000000000E+00  0.0000000000000E+00  0.0000000000000E+00
372  3.7100000000000E+00  0.0000000000000E+00  0.0000000000000E+00
373  3.7200000000000E+00  0.0000000000000E+00  0.0000000000000E+00
374  3.7300000000000E+00  0.0000000000000E+00  0.0000000000000E+00
375  3.7400000000000E+00  0.0000000000000E+00  0.0000000000000E+00
376  3.7500000000000E+00  0.0000000000000E+00  0.0000000000000E+00
377  3.7600000000000E+00  0.0000000000000E+00  0.0000000000000E+00
378  3.7700000000000E+00  0.0000000000000E+00  0.0000000000000E+00
379  3.7800000000000E+00  0.0000000000000E+00  0.0000000000000E+00
380  3.7900000000000E+00  0.0000000000000E+00  0.0000000000000E+00
381  3.8000000000000E+00  0.0000000000000E+00  0.0000000000000E+00
382  3.8100000000000E+00  0.0000000000000E+00  0.0000000000000E+00
383  3.8200000000000E+00  0.0000000000000E+00  0.0000000000000E+00
384  3.8300000000000E+00  0.0000000000000E+00  0.0000000000000E+00
385  3.8400000000000E+00  0.0000000000000E+00  0.0000000000000E+00
386  3.8500000000000E+00  0.0000000000000E+00  0.0000000000000E+00
387  3.8600000000000E+00  0.0000000000000E+00  0.0000000000000E+00
388  3.8700000000000E+00  0.0000000000000E+00  0.0000000000000E+00
389  3.8800000000000E+00  0.0000000000000E+00  0.0000000000000E+00
390  3.8900000000000E+00  0.0000000000000E+00  0.0000000000000E+00
391  3.9000000000000E+00  0.0000000000000E+00  0.0000000000000E+00
392  3.9100000000000E+00  0.0000000000000E+00  0.0000000000000E+00
393  3.9200000000000E+00  0.0000000000000E+00  0.0000000000000E+00
394  3.9300000000000E+00  0.0000000000000E+00  0.0000000000000E+00
395  3.9400000000000E+00  0.0000000000000E+00  0.0000000000000E+00
396  3.9500000000000E+00  0.0000000000000E+00  0.0000000000000E+00
397  3.9600000000000E+00  0.0000000000000E+00  0.0000000000000E+00
398  3.9700000000000E+00  0.0000000000000E+00  0.0000000000000E+00
399  3.9800000000000E+00  0.0000000000000E+00  0.0000000000000E+00
400  3.9900000000000E+00  0.0000000000000E+00  0.0000000000000E+00
401  4.0000000000000E+00  0.0000000000000E+00  0.0000000000000E+00
402  4.0100000000000E+00  0.0000000000000E+00  0.0000000000000E+00
403  4.0200000000000E+00  0.0000000000000E+00  0.0000000000000E+00
404  4.0300000000000E+00  0.0000000000000E+00  0.0000000000000E+00
405  4.0400000000000E+00  0.0000000000000E+00  0.0000000000000E+00
406  4.0500000000000E+00  0.0000000000000E+00  0.0000000000000E+00
407  4.0600000000000E+00  0.0000000000000E+00  0.0000000000000E+00
408  4.0700000000000E+00  0.0000000000000E+00  0.0000000000000E+00
409  4.0800000000000E+00  0.0000000000000E+00  0.0000000000000E+00
410  4.0900000000000E+00  0.0000000000000E+00  0.0000000000000E+00
411  4.1000000000000E+00  0.0000000000000E+00  0.0000000000000E+00
412  4.1100000000000E+00  0.0000000000000E+00  0.0000000000000E+00
413  4.1200000000000E+00  0.0000000000000E+00  0.0000000000000E+00
414  4.1300000000000E+00  0.0000000000000E+00  0.0000000000000E+00
415  4.1400000000000E+00  0.0000000000000E+00  0.0000000000000E+00
416  4.1500000000000E+00  0.0000000000000E+00  0.0000000000000E+00
417  4.1600000000000E+00  0.0000000000000E+00  0.0000000000000E+00
418  4.1700000000000E+00  0.0000000000000E+00  0.0000000000000E+00
419  4.1800000000000E+00  0.0000000000000E+00  0.0000000000000E+00
420  4.1900000000000E+00  0.0000000000000E+00  0.0000000000000E+00
421  4.2000000000000E+00  0.0000000000000E+00  0.0000000000000E+00
422  4.2100000000000E+00  0.0000000000000E+00  0.0000000000000E+00
423  4.2200000000000E+00  0.0000000000000E+00  0.0000000000000E+00
424  4.2300000000000E+00  0.0000000000000E+00  0.0000000000000E+00
425  4.2400000000000E+00  0.0000000000000E+00  0.0000000000000E+00
426  4.2500000000000E+00  0.0000000000000E+00  0.0000000000000E+00
427  4.2600000000000E+00  0.0000000000000E+00  0.0000000000000E+00
428  4.2700000000000E+00  0.0000000000000E+00  0.0000000000000E+00
429  4.2800000000000E+00  0.0000000000000E+00  0.0000000000000E+00
430  4.2900000000000E+00  0.0000000000000E+00  0.0000000000000E+00
431  4.3000000000000E+00  0.0000000000000E+00  0.0000000000000E+00
432  4.3100000000000E+00  0.0000000000000E+00  0.0000000000000E+00
433  4.3200000000000E+00  0.0000000000000E+00  0.0000000000000E+00
434  4.3300000000000E+00  0.0000000000000E+00  0.0000000000000E+00
435  4.3400000000000E+00  0.0000000000000E+00  0.0000000000000E+00
436  4.3500000000000E+00  0.0000000000000E+00  0.0000000000000E+00
437  4.3600000000000E+00  0.0000000000000E+00  0.0000000000000E+00
438  4.3700000000000E+00  0.0000000000000E+00  0.0000000000000E+00
439  4.3800000000000E+00  0.0000000000000E+00  0.0000000000000E+00
440  4.3900000000000E+00  0.0000000000000E+00  0.0000000000000E+00
441  4.4000000000000E+00  0.0000000000000E+00  0.0000000000000E+00
442  4.4100000000000E+00  0.0000000000000E+00  0.0000000000000E+00
443  4.4200000000000E+00  0.0000000000000E+00  0.0000000000000E+00