Ru    ONCVPSP-3.2.3.1  r_core=   1.35650   1.40592   1.30881
44.0000     16.0000      170429    zatom,zion,pspd
8      11   2     4   600     0    pspcod,pspxc,lmax,lloc,mmax,r2well
5.99000000  7.00000000  0.00000000    rchrg fchrg qchrg
2     2     2     0     0    nproj
1     1           extension_switch
0                         1.4629791333786E+01  1.1531908624076E+00
1  0.0000000000000E+00 -8.4731444083275E-10  4.3275517613850E-09
2  1.0000000000000E-02  7.1797329268890E-02 -4.1039151358433E-02
3  2.0000000000000E-02  1.4342826839127E-01 -8.1748681987915E-02
4  3.0000000000000E-02  2.1472734746279E-01 -1.2180296666814E-01
5  4.0000000000000E-02  2.8553092433555E-01 -1.6088430515277E-01
6  5.0000000000000E-02  3.5567806689783E-01 -1.9868672067592E-01
7  6.0000000000000E-02  4.2501139805089E-01 -2.3491956482162E-01
8  7.0000000000000E-02  4.9337789196301E-01 -2.6931086938759E-01
9  8.0000000000000E-02  5.6062961102797E-01 -3.0161039020237E-01
10  9.0000000000000E-02  6.2662437398758E-01 -3.3159229312889E-01
11  1.0000000000000E-01  6.9122634687632E-01 -3.5905743862117E-01
12  1.1000000000000E-01  7.5430654979251E-01 -3.8383522809237E-01
13  1.2000000000000E-01  8.1574327396924E-01 -4.0578498288746E-01
14  1.3000000000000E-01  8.7542240518707E-01 -4.2479683470781E-01
15  1.4000000000000E-01  9.3323765120978E-01 -4.4079211477274E-01
16  1.5000000000000E-01  9.8909067260822E-01 -4.5372323768483E-01
17  1.6000000000000E-01  1.0428911180350E+00 -4.6357308474467E-01
18  1.7000000000000E-01  1.0945565666949E+00 -4.7035390019011E-01
19  1.8000000000000E-01  1.1440123823952E+00 -4.7410572236541E-01
20  1.9000000000000E-01  1.1911914851223E+00 -4.7489438001433E-01
21  2.0000000000000E-01  1.2360340475573E+00 -4.7280909159466E-01
22  2.1000000000000E-01  1.2784871252763E+00 -4.6795971259902E-01
23  2.2000000000000E-01  1.3185042305657E+00 -4.6047368221324E-01
24  2.3000000000000E-01  1.3560448607931E+00 -4.5049272613649E-01
25  2.4000000000000E-01  1.3910739930888E+00 -4.3816937692785E-01
26  2.5000000000000E-01  1.4235615577030E+00 -4.2366337674835E-01
27  2.6000000000000E-01  1.4534819027854E+00 -4.0713802976758E-01
28  2.7000000000000E-01  1.4808132634899E+00 -3.8875657275087E-01
29  2.8000000000000E-01  1.5055372482254E+00 -3.6867863240432E-01
30  2.9000000000000E-01  1.5276383545504E+00 -3.4705683692208E-01
31  3.0000000000000E-01  1.5471035266588E+00 -3.2403364685695E-01
32  3.1000000000000E-01  1.5639217656177E+00 -2.9973846695525E-01
33  3.2000000000000E-01  1.5780838025194E+00 -2.7428509600248E-01
34  3.3000000000000E-01  1.5895818435092E+00 -2.4776956608810E-01
35  3.4000000000000E-01  1.5984093942604E+00 -2.2026841609904E-01
36  3.5000000000000E-01  1.6045611699210E+00 -1.9183743679430E-01
37  3.6000000000000E-01  1.6080330948684E+00 -1.6251091661455E-01
38  3.7000000000000E-01  1.6088223948111E+00 -1.3230140857311E-01
39  3.8000000000000E-01  1.6069277818984E+00 -1.0120002929838E-01
40  3.9000000000000E-01  1.6023497315704E+00 -6.9177291708142E-02
41  4.0000000000000E-01  1.5950908479392E+00 -3.6184463050007E-02
42  4.1000000000000E-01  1.5851563125647E+00 -2.1554303053130E-03
43  4.2000000000000E-01  1.5725544096145E+00  3.2990954609320E-02
44  4.3000000000000E-01  1.5572971186091E+00  6.9348086630620E-02
45  4.4000000000000E-01  1.5394007642809E+00  1.0701842183697E-01
46  4.5000000000000E-01  1.5188867115548E+00  1.4610994780900E-01
47  4.6000000000000E-01  1.4957820923150E+00  1.8673237089566E-01
48  4.7000000000000E-01  1.4701205494852E+00  2.2899308753810E-01
49  4.8000000000000E-01  1.4419429830408E+00  2.7299301206463E-01
50  4.9000000000000E-01  1.4112982819143E+00  3.1882233746169E-01
51  5.0000000000000E-01  1.3782440253636E+00  3.6655630846571E-01
52  5.1000000000000E-01  1.3428471372600E+00  4.1625108783779E-01
53  5.2000000000000E-01  1.3051844769275E+00  4.6793979683208E-01
54  5.3000000000000E-01  1.2653433506289E+00  5.2162880962282E-01
55  5.4000000000000E-01  1.2234219285481E+00  5.7729437882031E-01
56  5.5000000000000E-01  1.1795295531549E+00  6.3487966518810E-01
57  5.6000000000000E-01  1.1337869261409E+00  6.9429223933907E-01
58  5.7000000000000E-01  1.0863261626831E+00  7.5540211658693E-01
59  5.8000000000000E-01  1.0372907035830E+00  8.1804037835590E-01
60  5.9000000000000E-01  9.8683507783752E-01  8.8199842473203E-01
61  6.0000000000000E-01  9.3512451038509E-01  9.4702789297048E-01
62  6.1000000000000E-01  8.8233437210432E-01  1.0128412662436E+00
63  6.2000000000000E-01  8.2864947159100E-01  1.0791131857659E+00
64  6.3000000000000E-01  7.7426319076814E-01  1.1454824678055E+00
65  6.4000000000000E-01  7.1937646892983E-01  1.2115548152987E+00
66  6.5000000000000E-01  6.6419664238599E-01  1.2769062018131E+00
67  6.6000000000000E-01  6.0893614937153E-01  1.3410868938583E+00
68  6.7000000000000E-01  5.5381111229229E-01  1.4036260661305E+00
69  6.8000000000000E-01  4.9903981167252E-01  1.4640369533198E+00
70  6.9000000000000E-01  4.4484106827095E-01  1.5218224719583E+00
71  7.0000000000000E-01  3.9143255173403E-01  1.5764812365065E+00
72  7.1000000000000E-01  3.3902903581147E-01  1.6275138856617E+00
73  7.2000000000000E-01  2.8784062154066E-01  1.6744296278844E+00
74  7.3000000000000E-01  2.3807095087923E-01  1.7167529095352E+00
75  7.4000000000000E-01  1.8991543401501E-01  1.7540301048691E+00
76  7.5000000000000E-01  1.4355951398416E-01  1.7858361245679E+00
77  7.6000000000000E-01  9.9176992274378E-02  1.8117808385615E+00
78  7.7000000000000E-01  5.6928438766076E-02  1.8315152096407E+00
79  7.8000000000000E-01  1.6959708676119E-02  1.8447370368189E+00
80  7.9000000000000E-01 -2.0599411883779E-02  1.8511962115226E+00
81  8.0000000000000E-01 -5.5636411527137E-02  1.8506993954691E+00
82  8.1000000000000E-01 -8.8057091925309E-02  1.8431140364318E+00
83  8.2000000000000E-01 -1.1778642244223E-01  1.8283716469114E+00
84  8.3000000000000E-01 -1.4476919700281E-01  1.8064702809080E+00
85  8.4000000000000E-01 -1.6897048172226E-01  1.7774761553660E+00
86  8.5000000000000E-01 -1.9037584463652E-01  1.7415243752857E+00
87  8.6000000000000E-01 -2.0899136186146E-01  1.6988187347651E+00
88  8.7000000000000E-01 -2.2484339762749E-01  1.6496305801503E+00
89  8.8000000000000E-01 -2.3797815883715E-01  1.5942967358200E+00
90  8.9000000000000E-01 -2.4846102802829E-01  1.5332165076719E+00
91  9.0000000000000E-01 -2.5637568184288E-01  1.4668477938906E+00
92  9.1000000000000E-01 -2.6182300524962E-01  1.3957023468130E+00
93  9.2000000000000E-01 -2.6491981479809E-01  1.3203402434375E+00
94  9.3000000000000E-01 -2.6579740704165E-01  1.2413636351174E+00
95  9.4000000000000E-01 -2.6459995091006E-01  1.1594098590084E+00
96  9.5000000000000E-01 -2.6148274519479E-01  1.0751440047083E+00
97  9.6000000000000E-01 -2.5661036439055E-01  9.8925103903156E-01
98  9.7000000000000E-01 -2.5015471787823E-01  9.0242759983633E-01
99  9.8000000000000E-01 -2.4229304881041E-01  8.1537357613601E-01
100  9.9000000000000E-01 -2.3320590002012E-01  7.2878359614427E-01
101  1.0000000000000E+00 -2.2307507486477E-01  6.4333854763940E-01
102  1.0100000000000E+00 -2.1208162102471E-01  5.5969725555817E-01
103  1.0200000000000E+00 -2.0040386498413E-01  4.7848844042321E-01
104  1.0300000000000E+00 -1.8821552419212E-01  4.0030307789033E-01
105  1.0400000000000E+00 -1.7568392270820E-01  3.2568727425609E-01
106  1.0500000000000E+00 -1.6296833459103E-01  2.5513576569586E-01
107  1.0600000000000E+00 -1.5021847737005E-01  1.8908614021460E-01
108  1.0700000000000E+00 -1.3757317549679E-01  1.2791387009125E-01
109  1.0800000000000E+00 -1.2515921113760E-01  7.1928230964293E-02
110  1.0900000000000E+00 -1.1309037658073E-01  2.1369169522321E-02
111  1.1000000000000E+00 -1.0146673951622E-01 -2.3594832086457E-02
112  1.1100000000000E+00 -9.0374129045888E-02 -6.2867862641218E-02
113  1.1200000000000E+00 -7.9883846561530E-02 -9.6426643651824E-02
114  1.1300000000000E+00 -7.0052602200236E-02 -1.2431954696394E-01
115  1.1400000000000E+00 -6.0922673785444E-02 -1.4666458603206E-01
116  1.1500000000000E+00 -5.2522282055397E-02 -1.6364641301499E-01
117  1.1600000000000E+00 -4.4866171623066E-02 -1.7551237388856E-01
118  1.1700000000000E+00 -3.7956384254949E-02 -1.8256768690038E-01
119  1.1800000000000E+00 -3.1783207913154E-02 -1.8516982413241E-01
120  1.1900000000000E+00 -2.6326282020109E-02 -1.8372218965047E-01
121  1.2000000000000E+00 -2.1555836397652E-02 -1.7866720151265E-01
122  1.2100000000000E+00 -1.7434039329797E-02 -1.7047889405398E-01
123  1.2200000000000E+00 -1.3916428751876E-02 -1.5965516349979E-01
124  1.2300000000000E+00 -1.0953397965940E-02 -1.4670979180601E-01
125  1.2400000000000E+00 -8.4917071366151E-03 -1.3216438418893E-01
126  1.2500000000000E+00 -6.4759910116896E-03 -1.1654035946144E-01
127  1.2600000000000E+00 -4.8502326783840E-03 -1.0035113503605E-01
128  1.2700000000000E+00 -3.5591716627140E-03 -8.4094657099600E-02
129  1.2800000000000E+00 -2.5496289008824E-03 -6.8246349692004E-02
130  1.2900000000000E+00 -1.7717031731126E-03 -5.3252711710105E-02
131  1.3000000000000E+00 -1.1799145030373E-03 -3.9525134606572E-02
132  1.3100000000000E+00 -7.3364556078639E-04 -2.7439157695524E-02
133  1.3200000000000E+00 -3.9902019780748E-04 -1.7322310587379E-02
134  1.3300000000000E+00 -1.5208316751079E-04 -9.3802031748534E-03
135  1.3400000000000E+00  2.2458131060506E-05 -3.9479539046373E-03
136  1.3500000000000E+00  1.2994736206080E-04 -1.2212220953072E-03
137  1.3600000000000E+00  1.2071507427234E-04 -2.5003855152670E-04
138  1.3700000000000E+00  2.3774202851864E-05 -1.1765045411282E-05
139  1.3800000000000E+00 -1.6970318172852E-05 -8.9153700084679E-07
140  1.3900000000000E+00  6.6163042703510E-07 -4.6943871303746E-07
141  1.4000000000000E+00  3.1655750310357E-06 -1.5566950962029E-06
142  1.4100000000000E+00 -3.0126649127342E-07  1.0104581324954E-06
143  1.4200000000000E+00 -1.8908287508845E-07  6.3419044063329E-07
144  1.4300000000000E+00  0.0000000000000E+00  0.0000000000000E+00
145  1.4400000000000E+00  0.0000000000000E+00  0.0000000000000E+00
146  1.4500000000000E+00  0.0000000000000E+00  0.0000000000000E+00
147  1.4600000000000E+00  0.0000000000000E+00  0.0000000000000E+00
148  1.4700000000000E+00  0.0000000000000E+00  0.0000000000000E+00
149  1.4800000000000E+00  0.0000000000000E+00  0.0000000000000E+00
150  1.4900000000000E+00  0.0000000000000E+00  0.0000000000000E+00
151  1.5000000000000E+00  0.0000000000000E+00  0.0000000000000E+00
152  1.5100000000000E+00  0.0000000000000E+00  0.0000000000000E+00
153  1.5200000000000E+00  0.0000000000000E+00  0.0000000000000E+00
154  1.5300000000000E+00  0.0000000000000E+00  0.0000000000000E+00
155  1.5400000000000E+00  0.0000000000000E+00  0.0000000000000E+00
156  1.5500000000000E+00  0.0000000000000E+00  0.0000000000000E+00
157  1.5600000000000E+00  0.0000000000000E+00  0.0000000000000E+00
158  1.5700000000000E+00  0.0000000000000E+00  0.0000000000000E+00
159  1.5800000000000E+00  0.0000000000000E+00  0.0000000000000E+00
160  1.5900000000000E+00  0.0000000000000E+00  0.0000000000000E+00
161  1.6000000000000E+00  0.0000000000000E+00  0.0000000000000E+00
162  1.6100000000000E+00  0.0000000000000E+00  0.0000000000000E+00
163  1.6200000000000E+00  0.0000000000000E+00  0.0000000000000E+00
164  1.6300000000000E+00  0.0000000000000E+00  0.0000000000000E+00
165  1.6400000000000E+00  0.0000000000000E+00  0.0000000000000E+00
166  1.6500000000000E+00  0.0000000000000E+00  0.0000000000000E+00
167  1.6600000000000E+00  0.0000000000000E+00  0.0000000000000E+00
168  1.6700000000000E+00  0.0000000000000E+00  0.0000000000000E+00
169  1.6800000000000E+00  0.0000000000000E+00  0.0000000000000E+00
170  1.6900000000000E+00  0.0000000000000E+00  0.0000000000000E+00
171  1.7000000000000E+00  0.0000000000000E+00  0.0000000000000E+00
172  1.7100000000000E+00  0.0000000000000E+00  0.0000000000000E+00
173  1.7200000000000E+00  0.0000000000000E+00  0.0000000000000E+00
174  1.7300000000000E+00  0.0000000000000E+00  0.0000000000000E+00
175  1.7400000000000E+00  0.0000000000000E+00  0.0000000000000E+00
176  1.7500000000000E+00  0.0000000000000E+00  0.0000000000000E+00
177  1.7600000000000E+00  0.0000000000000E+00  0.0000000000000E+00
178  1.7700000000000E+00  0.0000000000000E+00  0.0000000000000E+00
179  1.7800000000000E+00  0.0000000000000E+00  0.0000000000000E+00
180  1.7900000000000E+00  0.0000000000000E+00  0.0000000000000E+00
181  1.8000000000000E+00  0.0000000000000E+00  0.0000000000000E+00
182  1.8100000000000E+00  0.0000000000000E+00  0.0000000000000E+00
183  1.8200000000000E+00  0.0000000000000E+00  0.0000000000000E+00
184  1.8300000000000E+00  0.0000000000000E+00  0.0000000000000E+00
185  1.8400000000000E+00  0.0000000000000E+00  0.0000000000000E+00
186  1.8500000000000E+00  0.0000000000000E+00  0.0000000000000E+00
187  1.8600000000000E+00  0.0000000000000E+00  0.0000000000000E+00
188  1.8700000000000E+00  0.0000000000000E+00  0.0000000000000E+00
189  1.8800000000000E+00  0.0000000000000E+00  0.0000000000000E+00
190  1.8900000000000E+00  0.0000000000000E+00  0.0000000000000E+00
191  1.9000000000000E+00  0.0000000000000E+00  0.0000000000000E+00
192  1.9100000000000E+00  0.0000000000000E+00  0.0000000000000E+00
193  1.9200000000000E+00  0.0000000000000E+00  0.0000000000000E+00
194  1.9300000000000E+00  0.0000000000000E+00  0.0000000000000E+00
195  1.9400000000000E+00  0.0000000000000E+00  0.0000000000000E+00
196  1.9500000000000E+00  0.0000000000000E+00  0.0000000000000E+00
197  1.9600000000000E+00  0.0000000000000E+00  0.0000000000000E+00
198  1.9700000000000E+00  0.0000000000000E+00  0.0000000000000E+00
199  1.9800000000000E+00  0.0000000000000E+00  0.0000000000000E+00
200  1.9900000000000E+00  0.0000000000000E+00  0.0000000000000E+00
201  2.0000000000000E+00  0.0000000000000E+00  0.0000000000000E+00
202  2.0100000000000E+00  0.0000000000000E+00  0.0000000000000E+00
203  2.0200000000000E+00  0.0000000000000E+00  0.0000000000000E+00
204  2.0300000000000E+00  0.0000000000000E+00  0.0000000000000E+00
205  2.0400000000000E+00  0.0000000000000E+00  0.0000000000000E+00
206  2.0500000000000E+00  0.0000000000000E+00  0.0000000000000E+00
207  2.0600000000000E+00  0.0000000000000E+00  0.0000000000000E+00
208  2.0700000000000E+00  0.0000000000000E+00  0.0000000000000E+00
209  2.0800000000000E+00  0.0000000000000E+00  0.0000000000000E+00
210  2.0900000000000E+00  0.0000000000000E+00  0.0000000000000E+00
211  2.1000000000000E+00  0.0000000000000E+00  0.0000000000000E+00
212  2.1100000000000E+00  0.0000000000000E+00  0.0000000000000E+00
213  2.1200000000000E+00  0.0000000000000E+00  0.0000000000000E+00
214  2.1300000000000E+00  0.0000000000000E+00  0.0000000000000E+00
215  2.1400000000000E+00  0.0000000000000E+00  0.0000000000000E+00
216  2.1500000000000E+00  0.0000000000000E+00  0.0000000000000E+00
217  2.1600000000000E+00  0.0000000000000E+00  0.0000000000000E+00
218  2.1700000000000E+00  0.0000000000000E+00  0.0000000000000E+00
219  2.1800000000000E+00  0.0000000000000E+00  0.0000000000000E+00
220  2.1900000000000E+00  0.0000000000000E+00  0.0000000000000E+00
221  2.2000000000000E+00  0.0000000000000E+00  0.0000000000000E+00
222  2.2100000000000E+00  0.0000000000000E+00  0.0000000000000E+00
223  2.2200000000000E+00  0.0000000000000E+00  0.0000000000000E+00
224  2.2300000000000E+00  0.0000000000000E+00  0.0000000000000E+00
225  2.2400000000000E+00  0.0000000000000E+00  0.0000000000000E+00
226  2.2500000000000E+00  0.0000000000000E+00  0.0000000000000E+00
227  2.2600000000000E+00  0.0000000000000E+00  0.0000000000000E+00
228  2.2700000000000E+00  0.0000000000000E+00  0.0000000000000E+00
229  2.2800000000000E+00  0.0000000000000E+00  0.0000000000000E+00
230  2.2900000000000E+00  0.0000000000000E+00  0.0000000000000E+00
231  2.3000000000000E+00  0.0000000000000E+00  0.0000000000000E+00
232  2.3100000000000E+00  0.0000000000000E+00  0.0000000000000E+00
233  2.3200000000000E+00  0.0000000000000E+00  0.0000000000000E+00
234  2.3300000000000E+00  0.0000000000000E+00  0.0000000000000E+00
235  2.3400000000000E+00  0.0000000000000E+00  0.0000000000000E+00
236  2.3500000000000E+00  0.0000000000000E+00  0.0000000000000E+00
237  2.3600000000000E+00  0.0000000000000E+00  0.0000000000000E+00
238  2.3700000000000E+00  0.0000000000000E+00  0.0000000000000E+00
239  2.3800000000000E+00  0.0000000000000E+00  0.0000000000000E+00
240  2.3900000000000E+00  0.0000000000000E+00  0.0000000000000E+00
241  2.4000000000000E+00  0.0000000000000E+00  0.0000000000000E+00
242  2.4100000000000E+00  0.0000000000000E+00  0.0000000000000E+00
243  2.4200000000000E+00  0.0000000000000E+00  0.0000000000000E+00
244  2.4300000000000E+00  0.0000000000000E+00  0.0000000000000E+00
245  2.4400000000000E+00  0.0000000000000E+00  0.0000000000000E+00
246  2.4500000000000E+00  0.0000000000000E+00  0.0000000000000E+00
247  2.4600000000000E+00  0.0000000000000E+00  0.0000000000000E+00
248  2.4700000000000E+00  0.0000000000000E+00  0.0000000000000E+00
249  2.4800000000000E+00  0.0000000000000E+00  0.0000000000000E+00
250  2.4900000000000E+00  0.0000000000000E+00  0.0000000000000E+00
251  2.5000000000000E+00  0.0000000000000E+00  0.0000000000000E+00
252  2.5100000000000E+00  0.0000000000000E+00  0.0000000000000E+00
253  2.5200000000000E+00  0.0000000000000E+00  0.0000000000000E+00
254  2.5300000000000E+00  0.0000000000000E+00  0.0000000000000E+00
255  2.5400000000000E+00  0.0000000000000E+00  0.0000000000000E+00
256  2.5500000000000E+00  0.0000000000000E+00  0.0000000000000E+00
257  2.5600000000000E+00  0.0000000000000E+00  0.0000000000000E+00
258  2.5700000000000E+00  0.0000000000000E+00  0.0000000000000E+00
259  2.5800000000000E+00  0.0000000000000E+00  0.0000000000000E+00
260  2.5900000000000E+00  0.0000000000000E+00  0.0000000000000E+00
261  2.6000000000000E+00  0.0000000000000E+00  0.0000000000000E+00
262  2.6100000000000E+00  0.0000000000000E+00  0.0000000000000E+00
263  2.6200000000000E+00  0.0000000000000E+00  0.0000000000000E+00
264  2.6300000000000E+00  0.0000000000000E+00  0.0000000000000E+00
265  2.6400000000000E+00  0.0000000000000E+00  0.0000000000000E+00
266  2.6500000000000E+00  0.0000000000000E+00  0.0000000000000E+00
267  2.6600000000000E+00  0.0000000000000E+00  0.0000000000000E+00
268  2.6700000000000E+00  0.0000000000000E+00  0.0000000000000E+00
269  2.6800000000000E+00  0.0000000000000E+00  0.0000000000000E+00
270  2.6900000000000E+00  0.0000000000000E+00  0.0000000000000E+00
271  2.7000000000000E+00  0.0000000000000E+00  0.0000000000000E+00
272  2.7100000000000E+00  0.0000000000000E+00  0.0000000000000E+00
273  2.7200000000000E+00  0.0000000000000E+00  0.0000000000000E+00
274  2.7300000000000E+00  0.0000000000000E+00  0.0000000000000E+00
275  2.7400000000000E+00  0.0000000000000E+00  0.0000000000000E+00
276  2.7500000000000E+00  0.0000000000000E+00  0.0000000000000E+00
277  2.7600000000000E+00  0.0000000000000E+00  0.0000000000000E+00
278  2.7700000000000E+00  0.0000000000000E+00  0.0000000000000E+00
279  2.7800000000000E+00  0.0000000000000E+00  0.0000000000000E+00
280  2.7900000000000E+00  0.0000000000000E+00  0.0000000000000E+00
281  2.8000000000000E+00  0.0000000000000E+00  0.0000000000000E+00
282  2.8100000000000E+00  0.0000000000000E+00  0.0000000000000E+00
283  2.8200000000000E+00  0.0000000000000E+00  0.0000000000000E+00
284  2.8300000000000E+00  0.0000000000000E+00  0.0000000000000E+00
285  2.8400000000000E+00  0.0000000000000E+00  0.0000000000000E+00
286  2.8500000000000E+00  0.0000000000000E+00  0.0000000000000E+00
287  2.8600000000000E+00  0.0000000000000E+00  0.0000000000000E+00
288  2.8700000000000E+00  0.0000000000000E+00  0.0000000000000E+00
289  2.8800000000000E+00  0.0000000000000E+00  0.0000000000000E+00
290  2.8900000000000E+00  0.0000000000000E+00  0.0000000000000E+00
291  2.9000000000000E+00  0.0000000000000E+00  0.0000000000000E+00
292  2.9100000000000E+00  0.0000000000000E+00  0.0000000000000E+00
293  2.9200000000000E+00  0.0000000000000E+00  0.0000000000000E+00
294  2.9300000000000E+00  0.0000000000000E+00  0.0000000000000E+00
295  2.9400000000000E+00  0.0000000000000E+00  0.0000000000000E+00
296  2.9500000000000E+00  0.0000000000000E+00  0.0000000000000E+00
297  2.9600000000000E+00  0.0000000000000E+00  0.0000000000000E+00
298  2.9700000000000E+00  0.0000000000000E+00  0.0000000000000E+00
299  2.9800000000000E+00  0.0000000000000E+00  0.0000000000000E+00
300  2.9900000000000E+00  0.0000000000000E+00  0.0000000000000E+00
301  3.0000000000000E+00  0.0000000000000E+00  0.0000000000000E+00
302  3.0100000000000E+00  0.0000000000000E+00  0.0000000000000E+00
303  3.0200000000000E+00  0.0000000000000E+00  0.0000000000000E+00
304  3.0300000000000E+00  0.0000000000000E+00  0.0000000000000E+00
305  3.0400000000000E+00  0.0000000000000E+00  0.0000000000000E+00
306  3.0500000000000E+00  0.0000000000000E+00  0.0000000000000E+00
307  3.0600000000000E+00  0.0000000000000E+00  0.0000000000000E+00
308  3.0700000000000E+00  0.0000000000000E+00  0.0000000000000E+00
309  3.0800000000000E+00  0.0000000000000E+00  0.0000000000000E+00
310  3.0900000000000E+00  0.0000000000000E+00  0.0000000000000E+00
311  3.1000000000000E+00  0.0000000000000E+00  0.0000000000000E+00
312  3.1100000000000E+00  0.0000000000000E+00  0.0000000000000E+00
313  3.1200000000000E+00  0.0000000000000E+00  0.0000000000000E+00
314  3.1300000000000E+00  0.0000000000000E+00  0.0000000000000E+00
315  3.1400000000000E+00  0.0000000000000E+00  0.0000000000000E+00
316  3.1500000000000E+00  0.0000000000000E+00  0.0000000000000E+00
317  3.1600000000000E+00  0.0000000000000E+00  0.0000000000000E+00
318  3.1700000000000E+00  0.0000000000000E+00  0.0000000000000E+00
319  3.1800000000000E+00  0.0000000000000E+00  0.0000000000000E+00
320  3.1900000000000E+00  0.0000000000000E+00  0.0000000000000E+00
321  3.2000000000000E+00  0.0000000000000E+00  0.0000000000000E+00
322  3.2100000000000E+00  0.0000000000000E+00  0.0000000000000E+00
323  3.2200000000000E+00  0.0000000000000E+00  0.0000000000000E+00
324  3.2300000000000E+00  0.0000000000000E+00  0.0000000000000E+00
325  3.2400000000000E+00  0.0000000000000E+00  0.0000000000000E+00
326  3.2500000000000E+00  0.0000000000000E+00  0.0000000000000E+00
327  3.2600000000000E+00  0.0000000000000E+00  0.0000000000000E+00
328  3.2700000000000E+00  0.0000000000000E+00  0.0000000000000E+00
329  3.2800000000000E+00  0.0000000000000E+00  0.0000000000000E+00
330  3.2900000000000E+00  0.0000000000000E+00  0.0000000000000E+00
331  3.3000000000000E+00  0.0000000000000E+00  0.0000000000000E+00
332  3.3100000000000E+00  0.0000000000000E+00  0.0000000000000E+00
333  3.3200000000000E+00  0.0000000000000E+00  0.0000000000000E+00
334  3.3300000000000E+00  0.0000000000000E+00  0.0000000000000E+00
335  3.3400000000000E+00  0.0000000000000E+00  0.0000000000000E+00
336  3.3500000000000E+00  0.0000000000000E+00  0.0000000000000E+00
337  3.3600000000000E+00  0.0000000000000E+00  0.0000000000000E+00
338  3.3700000000000E+00  0.0000000000000E+00  0.0000000000000E+00
339  3.3800000000000E+00  0.0000000000000E+00  0.0000000000000E+00
340  3.3900000000000E+00  0.0000000000000E+00  0.0000000000000E+00
341  3.4000000000000E+00  0.0000000000000E+00  0.0000000000000E+00
342  3.4100000000000E+00  0.0000000000000E+00  0.0000000000000E+00
343  3.4200000000000E+00  0.0000000000000E+00  0.0000000000000E+00
344  3.4300000000000E+00  0.0000000000000E+00  0.0000000000000E+00
345  3.4400000000000E+00  0.0000000000000E+00  0.0000000000000E+00
346  3.4500000000000E+00  0.0000000000000E+00  0.0000000000000E+00
347  3.4600000000000E+00  0.0000000000000E+00  0.0000000000000E+00
348  3.4700000000000E+00  0.0000000000000E+00  0.0000000000000E+00
349  3.4800000000000E+00  0.0000000000000E+00  0.0000000000000E+00
350  3.4900000000000E+00  0.0000000000000E+00  0.0000000000000E+00
351  3.5000000000000E+00  0.0000000000000E+00  0.0000000000000E+00
352  3.5100000000000E+00  0.0000000000000E+00  0.0000000000000E+00
353  3.5200000000000E+00  0.0000000000000E+00  0.0000000000000E+00
354  3.5300000000000E+00  0.0000000000000E+00  0.0000000000000E+00
355  3.5400000000000E+00  0.0000000000000E+00  0.0000000000000E+00
356  3.5500000000000E+00  0.0000000000000E+00  0.0000000000000E+00
357  3.5600000000000E+00  0.0000000000000E+00  0.0000000000000E+00
358  3.5700000000000E+00  0.0000000000000E+00  0.0000000000000E+00
359  3.5800000000000E+00  0.0000000000000E+00  0.0000000000000E+00
360  3.5900000000000E+00  0.0000000000000E+00  0.0000000000000E+00
361  3.6000000000000E+00  0.0000000000000E+00  0.0000000000000E+00
362  3.6100000000000E+00  0.0000000000000E+00  0.0000000000000E+00
363  3.6200000000000E+00  0.0000000000000E+00  0.0000000000000E+00
364  3.6300000000000E+00  0.0000000000000E+00  0.0000000000000E+00
365  3.6400000000000E+00  0.0000000000000E+00  0.0000000000000E+00
366  3.6500000000000E+00  0.0000000000000E+00  0.0000000000000E+00
367  3.6600000000000E+00  0.0000000000000E+00  0.0000000000000E+00
368  3.6700000000000E+00  0.0000000000000E+00  0.0000000000000E+00
369  3.6800000000000E+00  0.0000000000000E+00  0.0000000000000E+00
370  3.6900000000000E+00  0.0000000000000E+00  0.0000000000000E+00
371  3.7000000000000E+00  0.0000000000000E+00  0.0000000000000E+00
372  3.7100000000000E+00  0.0000000000000E+00  0.0000000000000E+00
373  3.7200000000000E+00  0.0000000000000E+00  0.0000000000000E+00
374  3.7300000000000E+00  0.0000000000000E+00  0.0000000000000E+00
375  3.7400000000000E+00  0.0000000000000E+00  0.0000000000000E+00
376  3.7500000000000E+00  0.0000000000000E+00  0.0000000000000E+00
377  3.7600000000000E+00  0.0000000000000E+00  0.0000000000000E+00
378  3.7700000000000E+00  0.0000000000000E+00  0.0000000000000E+00
379  3.7800000000000E+00  0.0000000000000E+00  0.0000000000000E+00
380  3.7900000000000E+00  0.0000000000000E+00  0.0000000000000E+00
381  3.8000000000000E+00  0.0000000000000E+00  0.0000000000000E+00
382  3.8100000000000E+00  0.0000000000000E+00  0.0000000000000E+00
383  3.8200000000000E+00  0.0000000000000E+00  0.0000000000000E+00
384  3.8300000000000E+00  0.0000000000000E+00  0.0000000000000E+00
385  3.8400000000000E+00  0.0000000000000E+00  0.0000000000000E+00
386  3.8500000000000E+00  0.0000000000000E+00  0.0000000000000E+00
387  3.8600000000000E+00  0.0000000000000E+00  0.0000000000000E+00
388  3.8700000000000E+00  0.0000000000000E+00  0.0000000000000E+00
389  3.8800000000000E+00  0.0000000000000E+00  0.0000000000000E+00
390  3.8900000000000E+00  0.0000000000000E+00  0.0000000000000E+00
391  3.9000000000000E+00  0.0000000000000E+00  0.0000000000000E+00
392  3.9100000000000E+00  0.0000000000000E+00  0.0000000000000E+00
393  3.9200000000000E+00  0.0000000000000E+00  0.0000000000000E+00
394  3.9300000000000E+00  0.0000000000000E+00  0.0000000000000E+00
395  3.9400000000000E+00  0.0000000000000E+00  0.0000000000000E+00
396  3.9500000000000E+00  0.0000000000000E+00  0.0000000000000E+00
397  3.9600000000000E+00  0.0000000000000E+00  0.0000000000000E+00
398  3.9700000000000E+00  0.0000000000000E+00  0.0000000000000E+00
399  3.9800000000000E+00  0.0000000000000E+00  0.0000000000000E+00
400  3.9900000000000E+00  0.0000000000000E+00  0.0000000000000E+00
401  4.0000000000000E+00  0.0000000000000E+00  0.0000000000000E+00
402  4.0100000000000E+00  0.0000000000000E+00  0.0000000000000E+00
403  4.0200000000000E+00  0.0000000000000E+00  0.0000000000000E+00
404  4.0300000000000E+00  0.0000000000000E+00  0.0000000000000E+00
405  4.0400000000000E+00  0.0000000000000E+00  0.0000000000000E+00
406  4.0500000000000E+00  0.0000000000000E+00  0.0000000000000E+00
407  4.0600000000000E+00  0.0000000000000E+00  0.0000000000000E+00
408  4.0700000000000E+00  0.0000000000000E+00  0.0000000000000E+00
409  4.0800000000000E+00  0.0000000000000E+00  0.0000000000000E+00
410  4.0900000000000E+00  0.0000000000000E+00  0.0000000000000E+00
411  4.1000000000000E+00  0.0000000000000E+00  0.0000000000000E+00
412  4.1100000000000E+00  0.0000000000000E+00  0.0000000000000E+00
413  4.1200000000000E+00  0.0000000000000E+00  0.0000000000000E+00
414  4.1300000000000E+00  0.0000000000000E+00  0.0000000000000E+00
415  4.1400000000000E+00  0.0000000000000E+00  0.0000000000000E+00
416  4.1500000000000E+00  0.0000000000000E+00  0.0000000000000E+00
417  4.1600000000000E+00  0.0000000000000E+00  0.0000000000000E+00
418  4.1700000000000E+00  0.0000000000000E+00  0.0000000000000E+00
419  4.1800000000000E+00  0.0000000000000E+00  0.0000000000000E+00
420  4.1900000000000E+00  0.0000000000000E+00  0.0000000000000E+00
421  4.2000000000000E+00  0.0000000000000E+00  0.0000000000000E+00
422  4.2100000000000E+00  0.0000000000000E+00  0.0000000000000E+00
423  4.2200000000000E+00  0.0000000000000E+00  0.0000000000000E+00
424  4.2300000000000E+00  0.0000000000000E+00  0.0000000000000E+00
425  4.2400000000000E+00  0.0000000000000E+00  0.0000000000000E+00
426  4.2500000000000E+00  0.0000000000000E+00  0.0000000000000E+00
427  4.2600000000000E+00  0.0000000000000E+00  0.0000000000000E+00
428  4.2700000000000E+00  0.0000000000000E+00  0.0000000000000E+00
429  4.2800000000000E+00  0.0000000000000E+00  0.0000000000000E+00
430  4.2900000000000E+00  0.0000000000000E+00  0.0000000000000E+00
431  4.3000000000000E+00  0.0000000000000E+00  0.0000000000000E+00
432  4.3100000000000E+00  0.0000000000000E+00  0.0000000000000E+00
433  4.3200000000000E+00  0.0000000000000E+00  0.0000000000000E+00
434  4.3300000000000E+00  0.0000000000000E+00  0.0000000000000E+00
435  4.3400000000000E+00  0.0000000000000E+00  0.0000000000000E+00
436  4.3500000000000E+00  0.0000000000000E+00  0.0000000000000E+00
437  4.3600000000000E+00  0.0000000000000E+00  0.0000000000000E+00
438  4.3700000000000E+00  0.0000000000000E+00  0.0000000000000E+00
439  4.3800000000000E+00  0.0000000000000E+00  0.0000000000000E+00
440  4.3900000000000E+00  0.0000000000000E+00  0.0000000000000E+00
441  4.4000000000000E+00  0.0000000000000E+00  0.0000000000000E+00
442  4.4100000000000E+00  0.0000000000000E+00  0.0000000000000E+00
443  4.4200000000000E+00  0.0000000000000E+00  0.0000000000000E+00