In    ONCVPSP-3.2.3.1  r_core=   1.60261   1.60261   1.70110
49.0000     21.0000      170510    zatom,zion,pspd
8      11   2     4   600     0    pspcod,pspxc,lmax,lloc,mmax,r2well
5.99000000  5.00000000  0.00000000    rchrg fchrg qchrg
2     2     2     0     0    nproj
1     1           extension_switch
0                         8.4447922329688E+00 -5.5141029074210E-01
1  0.0000000000000E+00  8.8728802083438E-11  5.6576639900774E-10
2  1.0000000000000E-02  8.9342665928653E-02  7.0583785283672E-03
3  2.0000000000000E-02  1.7843980243163E-01  1.4168931713120E-02
4  3.0000000000000E-02  2.6704657945151E-01  2.1383063756226E-02
5  4.0000000000000E-02  3.5491956507149E-01  2.8750649070612E-02
6  5.0000000000000E-02  4.4181742307274E-01  3.6319295039267E-02
7  6.0000000000000E-02  5.2750160861198E-01  4.4133637552157E-02
8  7.0000000000000E-02  6.1173706128612E-01  5.2234679574543E-02
9  8.0000000000000E-02  6.9429289476271E-01  6.0659182434551E-02
10  9.0000000000000E-02  7.7494308204627E-01  6.9439118823658E-02
11  1.0000000000000E-01  8.5346713532552E-01  7.8601195689525E-02
12  1.1000000000000E-01  9.2965077920540E-01  8.8166454276333E-02
13  1.2000000000000E-01  1.0032866159742E+00  9.8149953544790E-02
14  1.3000000000000E-01  1.0741747813922E+00  1.0856054209452E-01
15  1.4000000000000E-01  1.1421235893177E+00  1.1940072252972E-01
16  1.5000000000000E-01  1.2069501633106E+00  1.3066661096867E-01
17  1.6000000000000E-01  1.2684810531784E+00  1.4234799311496E-01
18  1.7000000000000E-01  1.3265528342568E+00  1.5442847699826E-01
19  1.8000000000000E-01  1.3810126870490E+00  1.6688574117202E-01
20  1.9000000000000E-01  1.4317189546917E+00  1.7969187584111E-01
21  2.0000000000000E-01  1.4785416755706E+00  1.9281381309982E-01
22  2.1000000000000E-01  1.5213630882812E+00  2.0621384120764E-01
23  2.2000000000000E-01  1.5600781060209E+00  2.1985019663154E-01
24  2.3000000000000E-01  1.5945947574152E+00  2.3367772645465E-01
25  2.4000000000000E-01  1.6248345907193E+00  2.4764861270854E-01
26  2.5000000000000E-01  1.6507330383051E+00  2.6171314924049E-01
27  2.6000000000000E-01  1.6722397383450E+00  2.7582056089438E-01
28  2.7000000000000E-01  1.6893188106321E+00  2.8991985407274E-01
29  2.8000000000000E-01  1.7019490835456E+00  3.0396068716949E-01
30  2.9000000000000E-01  1.7101242692725E+00  3.1789424892648E-01
31  3.0000000000000E-01  1.7138530845314E+00  3.3167413247847E-01
32  3.1000000000000E-01  1.7131593142247E+00  3.4525719271579E-01
33  3.2000000000000E-01  1.7080818156546E+00  3.5860437461601E-01
34  3.3000000000000E-01  1.6986744611875E+00  3.7168150037511E-01
35  3.4000000000000E-01  1.6850060175386E+00  3.8446000350642E-01
36  3.5000000000000E-01  1.6671599601634E+00  3.9691759856833E-01
37  3.6000000000000E-01  1.6452342215983E+00  4.0903887582560E-01
38  3.7000000000000E-01  1.6193408729693E+00  4.2081581093813E-01
39  3.8000000000000E-01  1.5896057383015E+00  4.3224818069724E-01
40  3.9000000000000E-01  1.5561679416907E+00  4.4334387688261E-01
41  4.0000000000000E-01  1.5191793878553E+00  4.5411911148313E-01
42  4.1000000000000E-01  1.4788041770556E+00  4.6459850779699E-01
43  4.2000000000000E-01  1.4352179558520E+00  4.7481507328884E-01
44  4.3000000000000E-01  1.3886072056652E+00  4.8481005151642E-01
45  4.4000000000000E-01  1.3391684715972E+00  4.9463265193160E-01
46  4.5000000000000E-01  1.2871075344654E+00  5.0433965789199E-01
47  4.6000000000000E-01  1.2326385294900E+00  5.1399491477247E-01
48  4.7000000000000E-01  1.1759830155542E+00  5.2366870162084E-01
49  4.8000000000000E-01  1.1173689994129E+00  5.3343699134158E-01
50  4.9000000000000E-01  1.0570299196682E+00  5.4338060589501E-01
51  5.0000000000000E-01  9.9520359574104E-01  5.5358427444926E-01
52  5.1000000000000E-01  9.3213114745033E-01  5.6413560379965E-01
53  5.2000000000000E-01  8.6805589115626E-01  5.7512397165724E-01
54  5.3000000000000E-01  8.0322221873077E-01  5.8663935458872E-01
55  5.4000000000000E-01  7.3787446587920E-01  5.9877110344570E-01
56  5.5000000000000E-01  6.7225577655115E-01  6.1160668004238E-01
57  5.6000000000000E-01  6.0660697034112E-01  6.2523036960790E-01
58  5.7000000000000E-01  5.4116541988850E-01  6.3972198414666E-01
59  5.8000000000000E-01  4.7616394533908E-01  6.5515557227410E-01
60  5.9000000000000E-01  4.1182973292500E-01  6.7159815134953E-01
61  6.0000000000000E-01  3.4838328465580E-01  6.8910847779684E-01
62  6.1000000000000E-01  2.8603740598903E-01  7.0773587138267E-01
63  6.2000000000000E-01  2.2499623816519E-01  7.2751910891163E-01
64  6.3000000000000E-01  1.6545434164779E-01  7.4848540229432E-01
65  6.4000000000000E-01  1.0759583680986E-01  7.7064947526022E-01
66  6.5000000000000E-01  5.1593607648756E-02  7.9401275211355E-01
67  6.6000000000000E-01 -2.3914260989500E-03  8.1856267088863E-01
68  6.7000000000000E-01 -5.4210963532025E-02  8.4427213205727E-01
69  6.8000000000000E-01 -1.0372989944922E-01  8.7109909257568E-01
70  6.9000000000000E-01 -1.5082681965624E-01  8.9898631356358E-01
71  7.0000000000000E-01 -1.9539441145765E-01  9.2786126828941E-01
72  7.1000000000000E-01 -2.3733978670180E-01  9.5763621540867E-01
73  7.2000000000000E-01 -2.7658471539979E-01  9.8820844058902E-01
74  7.3000000000000E-01 -3.1306576861376E-01  1.0194606677808E+00
75  7.4000000000000E-01 -3.4673437000178E-01  1.0512616394660E+00
76  7.5000000000000E-01 -3.7755675610689E-01  1.0834668632756E+00
77  7.6000000000000E-01 -4.0551384618231E-01  1.1159195204185E+00
78  7.7000000000000E-01 -4.3060102304729E-01  1.1484515294373E+00
79  7.8000000000000E-01 -4.5282782715781E-01  1.1808847569352E+00
80  7.9000000000000E-01 -4.7221756675165E-01  1.2130323651026E+00
81  8.0000000000000E-01 -4.8880684757946E-01  1.2447002841549E+00
82  8.1000000000000E-01 -5.0264502635531E-01  1.2756887961858E+00
83  8.2000000000000E-01 -5.1379359264783E-01  1.3057942154637E+00
84  8.3000000000000E-01 -5.2232548447869E-01  1.3348106488746E+00
85  8.4000000000000E-01 -5.2832434339478E-01  1.3625318190606E+00
86  8.5000000000000E-01 -5.3188371522867E-01  1.3887529318301E+00
87  8.6000000000000E-01 -5.3310620315391E-01  1.4132725686446E+00
88  8.7000000000000E-01 -5.3210257997475E-01  1.4358945844238E+00
89  8.8000000000000E-01 -5.2899086685914E-01  1.4564299905639E+00
90  8.9000000000000E-01 -5.2389538592814E-01  1.4746988029494E+00
91  9.0000000000000E-01 -5.1694579425141E-01  1.4905318348460E+00
92  9.1000000000000E-01 -5.0827610686579E-01  1.5037724149076E+00
93  9.2000000000000E-01 -4.9802371643288E-01  1.5142780111006E+00
94  9.3000000000000E-01 -4.8632841707982E-01  1.5219217421476E+00
95  9.4000000000000E-01 -4.7333143982888E-01  1.5265937591113E+00
96  9.5000000000000E-01 -4.5917450681492E-01  1.5282024809640E+00
97  9.6000000000000E-01 -4.4399891121940E-01  1.5266756694159E+00
98  9.7000000000000E-01 -4.2794462951889E-01  1.5219613298785E+00
99  9.8000000000000E-01 -4.1114947224995E-01  1.5140284272359E+00
100  9.9000000000000E-01 -3.9374827906045E-01  1.5028674069767E+00
101  1.0000000000000E+00 -3.7587216331492E-01  1.4884905143259E+00
102  1.0100000000000E+00 -3.5764781098755E-01  1.4709319061641E+00
103  1.0200000000000E+00 -3.3919683800548E-01  1.4502475527411E+00
104  1.0300000000000E+00 -3.2063520959864E-01  1.4265149284858E+00
105  1.0400000000000E+00 -3.0207272457663E-01  1.3998324935478E+00
106  1.0500000000000E+00 -2.8361256680522E-01  1.3703189700186E+00
107  1.0600000000000E+00 -2.6535092551677E-01  1.3381124190012E+00
108  1.0700000000000E+00 -2.4737668537725E-01  1.3033691270949E+00
109  1.0800000000000E+00 -2.2977118661066E-01  1.2662623128846E+00
110  1.0900000000000E+00 -2.1260805479763E-01  1.2269806661778E+00
111  1.1000000000000E+00 -1.9595309934661E-01  1.1857267345996E+00
112  1.1100000000000E+00 -1.7986427903209E-01  1.1427151739140E+00
113  1.1200000000000E+00 -1.6439173235464E-01  1.0981708801836E+00
114  1.1300000000000E+00 -1.4957786997524E-01  1.0523270231483E+00
115  1.1400000000000E+00 -1.3545752592340E-01  1.0054230014752E+00
116  1.1500000000000E+00 -1.2205816388896E-01  9.5770234139530E-01
117  1.1600000000000E+00 -1.0940013436590E-01  9.0941056118606E-01
118  1.1700000000000E+00 -9.7496978140357E-02  8.6079302424315E-01
119  1.1800000000000E+00 -8.6355771288238E-02  8.1209280373054E-01
120  1.1900000000000E+00 -7.5977506594575E-02  7.6354858190576E-01
121  1.2000000000000E+00 -6.6357506079345E-02  7.1539260680612E-01
122  1.2100000000000E+00 -5.7485859244428E-02  6.6784872822170E-01
123  1.2200000000000E+00 -4.9347881558371E-02  6.2113053460530E-01
124  1.2300000000000E+00 -4.1924587663110E-02  5.7543961103561E-01
125  1.2400000000000E+00 -3.5193173912706E-02  5.3096393695049E-01
126  1.2500000000000E+00 -2.9127504900722E-02  4.8787644139870E-01
127  1.2600000000000E+00 -2.3698598784099E-02  4.4633373163566E-01
128  1.2700000000000E+00 -1.8875106562074E-02  4.0647500825081E-01
129  1.2800000000000E+00 -1.4623780596416E-02  3.6842117903553E-01
130  1.2900000000000E+00 -1.0909927949786E-02  3.3227418144495E-01
131  1.3000000000000E+00 -7.6978447458052E-03  2.9811651968494E-01
132  1.3100000000000E+00 -4.9512277883689E-03  2.6601102224990E-01
133  1.3200000000000E+00 -2.6335602127328E-03  2.3600082230609E-01
134  1.3300000000000E+00 -7.0846873543784E-04  2.0810955914385E-01
135  1.3400000000000E+00  8.5995016859443E-04  1.8234180011546E-01
136  1.3500000000000E+00  2.1068367972306E-03  1.5868367681962E-01
137  1.3600000000000E+00  3.0663084855768E-03  1.3710372663740E-01
138  1.3700000000000E+00  3.7712351654533E-03  1.1755393298880E-01
139  1.3800000000000E+00  4.2530498636938E-03  9.9970948631142E-02
140  1.3900000000000E+00  4.5415944279387E-03  8.4277489637613E-02
141  1.4000000000000E+00  4.6650001393349E-03  7.0383884357931E-02
142  1.4100000000000E+00  4.6496016944536E-03  5.8189757284975E-02
143  1.4200000000000E+00  4.5198840112903E-03  4.7585831375127E-02
144  1.4300000000000E+00  4.2984595714860E-03  3.8455825663338E-02
145  1.4400000000000E+00  4.0060746099761E-03  3.0678427907505E-02
146  1.4500000000000E+00  3.6616420120166E-03  2.4129319382871E-02
147  1.4600000000000E+00  3.2822989798050E-03  1.8683232593026E-02
148  1.4700000000000E+00  2.8834822737241E-03  1.4215997432547E-02
149  1.4800000000000E+00  2.4790371353713E-03  1.0606633352962E-02
150  1.4900000000000E+00  2.0812904342645E-03  7.7391890671332E-03
151  1.5000000000000E+00  1.7011924032250E-03  5.5047406284933E-03
152  1.5100000000000E+00  1.3486580314702E-03  3.8041274303312E-03
153  1.5200000000000E+00  1.0321691357176E-03  2.5474092240120E-03
154  1.5300000000000E+00  7.5830939653237E-04  1.6528930977578E-03
155  1.5400000000000E+00  5.3127170038135E-04  1.0461089766534E-03
156  1.5500000000000E+00  3.5242171451292E-04  6.5899606109524E-04
157  1.5600000000000E+00  2.2045141214111E-04  4.3087587145095E-04
158  1.5700000000000E+00  1.3097170479345E-04  3.0722217074971E-04
159  1.5800000000000E+00  7.9020499796671E-05  2.5314946926157E-04
160  1.5900000000000E+00  5.9242505124289E-05  2.5200024304543E-04
161  1.6000000000000E+00  5.1525154165196E-05  2.4143829152271E-04
162  1.6100000000000E+00  3.0478415718891E-05  1.4453334226689E-04
163  1.6200000000000E+00  3.8814419392072E-06  1.8319267724157E-05
164  1.6300000000000E+00 -4.9834501418870E-06 -2.4176938776119E-05
165  1.6400000000000E+00 -8.1661236729041E-07 -3.9673961109006E-06
166  1.6500000000000E+00  1.1027701876143E-06  5.3996847266578E-06
167  1.6600000000000E+00  1.5582956256174E-07  7.6487259794642E-07
168  1.6700000000000E+00 -1.3718177845106E-07 -6.4543008394893E-07
169  1.6800000000000E+00 -1.8928826940338E-08 -8.9058725576412E-08
170  1.6900000000000E+00  0.0000000000000E+00  0.0000000000000E+00
171  1.7000000000000E+00  0.0000000000000E+00  0.0000000000000E+00
172  1.7100000000000E+00  0.0000000000000E+00  0.0000000000000E+00
173  1.7200000000000E+00  0.0000000000000E+00  0.0000000000000E+00
174  1.7300000000000E+00  0.0000000000000E+00  0.0000000000000E+00
175  1.7400000000000E+00  0.0000000000000E+00  0.0000000000000E+00
176  1.7500000000000E+00  0.0000000000000E+00  0.0000000000000E+00
177  1.7600000000000E+00  0.0000000000000E+00  0.0000000000000E+00
178  1.7700000000000E+00  0.0000000000000E+00  0.0000000000000E+00
179  1.7800000000000E+00  0.0000000000000E+00  0.0000000000000E+00
180  1.7900000000000E+00  0.0000000000000E+00  0.0000000000000E+00
181  1.8000000000000E+00  0.0000000000000E+00  0.0000000000000E+00
182  1.8100000000000E+00  0.0000000000000E+00  0.0000000000000E+00
183  1.8200000000000E+00  0.0000000000000E+00  0.0000000000000E+00
184  1.8300000000000E+00  0.0000000000000E+00  0.0000000000000E+00
185  1.8400000000000E+00  0.0000000000000E+00  0.0000000000000E+00
186  1.8500000000000E+00  0.0000000000000E+00  0.0000000000000E+00
187  1.8600000000000E+00  0.0000000000000E+00  0.0000000000000E+00
188  1.8700000000000E+00  0.0000000000000E+00  0.0000000000000E+00
189  1.8800000000000E+00  0.0000000000000E+00  0.0000000000000E+00
190  1.8900000000000E+00  0.0000000000000E+00  0.0000000000000E+00
191  1.9000000000000E+00  0.0000000000000E+00  0.0000000000000E+00
192  1.9100000000000E+00  0.0000000000000E+00  0.0000000000000E+00
193  1.9200000000000E+00  0.0000000000000E+00  0.0000000000000E+00
194  1.9300000000000E+00  0.0000000000000E+00  0.0000000000000E+00
195  1.9400000000000E+00  0.0000000000000E+00  0.0000000000000E+00
196  1.9500000000000E+00  0.0000000000000E+00  0.0000000000000E+00
197  1.9600000000000E+00  0.0000000000000E+00  0.0000000000000E+00
198  1.9700000000000E+00  0.0000000000000E+00  0.0000000000000E+00
199  1.9800000000000E+00  0.0000000000000E+00  0.0000000000000E+00
200  1.9900000000000E+00  0.0000000000000E+00  0.0000000000000E+00
201  2.0000000000000E+00  0.0000000000000E+00  0.0000000000000E+00
202  2.0100000000000E+00  0.0000000000000E+00  0.0000000000000E+00
203  2.0200000000000E+00  0.0000000000000E+00  0.0000000000000E+00
204  2.0300000000000E+00  0.0000000000000E+00  0.0000000000000E+00
205  2.0400000000000E+00  0.0000000000000E+00  0.0000000000000E+00
206  2.0500000000000E+00  0.0000000000000E+00  0.0000000000000E+00
207  2.0600000000000E+00  0.0000000000000E+00  0.0000000000000E+00
208  2.0700000000000E+00  0.0000000000000E+00  0.0000000000000E+00
209  2.0800000000000E+00  0.0000000000000E+00  0.0000000000000E+00
210  2.0900000000000E+00  0.0000000000000E+00  0.0000000000000E+00
211  2.1000000000000E+00  0.0000000000000E+00  0.0000000000000E+00
212  2.1100000000000E+00  0.0000000000000E+00  0.0000000000000E+00
213  2.1200000000000E+00  0.0000000000000E+00  0.0000000000000E+00
214  2.1300000000000E+00  0.0000000000000E+00  0.0000000000000E+00
215  2.1400000000000E+00  0.0000000000000E+00  0.0000000000000E+00
216  2.1500000000000E+00  0.0000000000000E+00  0.0000000000000E+00
217  2.1600000000000E+00  0.0000000000000E+00  0.0000000000000E+00
218  2.1700000000000E+00  0.0000000000000E+00  0.0000000000000E+00
219  2.1800000000000E+00  0.0000000000000E+00  0.0000000000000E+00
220  2.1900000000000E+00  0.0000000000000E+00  0.0000000000000E+00
221  2.2000000000000E+00  0.0000000000000E+00  0.0000000000000E+00
222  2.2100000000000E+00  0.0000000000000E+00  0.0000000000000E+00
223  2.2200000000000E+00  0.0000000000000E+00  0.0000000000000E+00
224  2.2300000000000E+00  0.0000000000000E+00  0.0000000000000E+00
225  2.2400000000000E+00  0.0000000000000E+00  0.0000000000000E+00
226  2.2500000000000E+00  0.0000000000000E+00  0.0000000000000E+00
227  2.2600000000000E+00  0.0000000000000E+00  0.0000000000000E+00
228  2.2700000000000E+00  0.0000000000000E+00  0.0000000000000E+00
229  2.2800000000000E+00  0.0000000000000E+00  0.0000000000000E+00
230  2.2900000000000E+00  0.0000000000000E+00  0.0000000000000E+00
231  2.3000000000000E+00  0.0000000000000E+00  0.0000000000000E+00
232  2.3100000000000E+00  0.0000000000000E+00  0.0000000000000E+00
233  2.3200000000000E+00  0.0000000000000E+00  0.0000000000000E+00
234  2.3300000000000E+00  0.0000000000000E+00  0.0000000000000E+00
235  2.3400000000000E+00  0.0000000000000E+00  0.0000000000000E+00
236  2.3500000000000E+00  0.0000000000000E+00  0.0000000000000E+00
237  2.3600000000000E+00  0.0000000000000E+00  0.0000000000000E+00
238  2.3700000000000E+00  0.0000000000000E+00  0.0000000000000E+00
239  2.3800000000000E+00  0.0000000000000E+00  0.0000000000000E+00
240  2.3900000000000E+00  0.0000000000000E+00  0.0000000000000E+00
241  2.4000000000000E+00  0.0000000000000E+00  0.0000000000000E+00
242  2.4100000000000E+00  0.0000000000000E+00  0.0000000000000E+00
243  2.4200000000000E+00  0.0000000000000E+00  0.0000000000000E+00
244  2.4300000000000E+00  0.0000000000000E+00  0.0000000000000E+00
245  2.4400000000000E+00  0.0000000000000E+00  0.0000000000000E+00
246  2.4500000000000E+00  0.0000000000000E+00  0.0000000000000E+00
247  2.4600000000000E+00  0.0000000000000E+00  0.0000000000000E+00
248  2.4700000000000E+00  0.0000000000000E+00  0.0000000000000E+00
249  2.4800000000000E+00  0.0000000000000E+00  0.0000000000000E+00
250  2.4900000000000E+00  0.0000000000000E+00  0.0000000000000E+00
251  2.5000000000000E+00  0.0000000000000E+00  0.0000000000000E+00
252  2.5100000000000E+00  0.0000000000000E+00  0.0000000000000E+00
253  2.5200000000000E+00  0.0000000000000E+00  0.0000000000000E+00
254  2.5300000000000E+00  0.0000000000000E+00  0.0000000000000E+00
255  2.5400000000000E+00  0.0000000000000E+00  0.0000000000000E+00
256  2.5500000000000E+00  0.0000000000000E+00  0.0000000000000E+00
257  2.5600000000000E+00  0.0000000000000E+00  0.0000000000000E+00
258  2.5700000000000E+00  0.0000000000000E+00  0.0000000000000E+00
259  2.5800000000000E+00  0.0000000000000E+00  0.0000000000000E+00
260  2.5900000000000E+00  0.0000000000000E+00  0.0000000000000E+00
261  2.6000000000000E+00  0.0000000000000E+00  0.0000000000000E+00
262  2.6100000000000E+00  0.0000000000000E+00  0.0000000000000E+00
263  2.6200000000000E+00  0.0000000000000E+00  0.0000000000000E+00
264  2.6300000000000E+00  0.0000000000000E+00  0.0000000000000E+00
265  2.6400000000000E+00  0.0000000000000E+00  0.0000000000000E+00
266  2.6500000000000E+00  0.0000000000000E+00  0.0000000000000E+00
267  2.6600000000000E+00  0.0000000000000E+00  0.0000000000000E+00
268  2.6700000000000E+00  0.0000000000000E+00  0.0000000000000E+00
269  2.6800000000000E+00  0.0000000000000E+00  0.0000000000000E+00
270  2.6900000000000E+00  0.0000000000000E+00  0.0000000000000E+00
271  2.7000000000000E+00  0.0000000000000E+00  0.0000000000000E+00
272  2.7100000000000E+00  0.0000000000000E+00  0.0000000000000E+00
273  2.7200000000000E+00  0.0000000000000E+00  0.0000000000000E+00
274  2.7300000000000E+00  0.0000000000000E+00  0.0000000000000E+00
275  2.7400000000000E+00  0.0000000000000E+00  0.0000000000000E+00
276  2.7500000000000E+00  0.0000000000000E+00  0.0000000000000E+00
277  2.7600000000000E+00  0.0000000000000E+00  0.0000000000000E+00
278  2.7700000000000E+00  0.0000000000000E+00  0.0000000000000E+00
279  2.7800000000000E+00  0.0000000000000E+00  0.0000000000000E+00
280  2.7900000000000E+00  0.0000000000000E+00  0.0000000000000E+00
281  2.8000000000000E+00  0.0000000000000E+00  0.0000000000000E+00
282  2.8100000000000E+00  0.0000000000000E+00  0.0000000000000E+00
283  2.8200000000000E+00  0.0000000000000E+00  0.0000000000000E+00
284  2.8300000000000E+00  0.0000000000000E+00  0.0000000000000E+00
285  2.8400000000000E+00  0.0000000000000E+00  0.0000000000000E+00
286  2.8500000000000E+00  0.0000000000000E+00  0.0000000000000E+00
287  2.8600000000000E+00  0.0000000000000E+00  0.0000000000000E+00
288  2.8700000000000E+00  0.0000000000000E+00  0.0000000000000E+00
289  2.8800000000000E+00  0.0000000000000E+00  0.0000000000000E+00
290  2.8900000000000E+00  0.0000000000000E+00  0.0000000000000E+00
291  2.9000000000000E+00  0.0000000000000E+00  0.0000000000000E+00
292  2.9100000000000E+00  0.0000000000000E+00  0.0000000000000E+00
293  2.9200000000000E+00  0.0000000000000E+00  0.0000000000000E+00
294  2.9300000000000E+00  0.0000000000000E+00  0.0000000000000E+00
295  2.9400000000000E+00  0.0000000000000E+00  0.0000000000000E+00
296  2.9500000000000E+00  0.0000000000000E+00  0.0000000000000E+00
297  2.9600000000000E+00  0.0000000000000E+00  0.0000000000000E+00
298  2.9700000000000E+00  0.0000000000000E+00  0.0000000000000E+00
299  2.9800000000000E+00  0.0000000000000E+00  0.0000000000000E+00
300  2.9900000000000E+00  0.0000000000000E+00  0.0000000000000E+00
301  3.0000000000000E+00  0.0000000000000E+00  0.0000000000000E+00
302  3.0100000000000E+00  0.0000000000000E+00  0.0000000000000E+00
303  3.0200000000000E+00  0.0000000000000E+00  0.0000000000000E+00
304  3.0300000000000E+00  0.0000000000000E+00  0.0000000000000E+00
305  3.0400000000000E+00  0.0000000000000E+00  0.0000000000000E+00
306  3.0500000000000E+00  0.0000000000000E+00  0.0000000000000E+00
307  3.0600000000000E+00  0.0000000000000E+00  0.0000000000000E+00
308  3.0700000000000E+00  0.0000000000000E+00  0.0000000000000E+00
309  3.0800000000000E+00  0.0000000000000E+00  0.0000000000000E+00
310  3.0900000000000E+00  0.0000000000000E+00  0.0000000000000E+00
311  3.1000000000000E+00  0.0000000000000E+00  0.0000000000000E+00
312  3.1100000000000E+00  0.0000000000000E+00  0.0000000000000E+00
313  3.1200000000000E+00  0.0000000000000E+00  0.0000000000000E+00
314  3.1300000000000E+00  0.0000000000000E+00  0.0000000000000E+00
315  3.1400000000000E+00  0.0000000000000E+00  0.0000000000000E+00
316  3.1500000000000E+00  0.0000000000000E+00  0.0000000000000E+00
317  3.1600000000000E+00  0.0000000000000E+00  0.0000000000000E+00
318  3.1700000000000E+00  0.0000000000000E+00  0.0000000000000E+00
319  3.1800000000000E+00  0.0000000000000E+00  0.0000000000000E+00
320  3.1900000000000E+00  0.0000000000000E+00  0.0000000000000E+00
321  3.2000000000000E+00  0.0000000000000E+00  0.0000000000000E+00
322  3.2100000000000E+00  0.0000000000000E+00  0.0000000000000E+00
323  3.2200000000000E+00  0.0000000000000E+00  0.0000000000000E+00
324  3.2300000000000E+00  0.0000000000000E+00  0.0000000000000E+00
325  3.2400000000000E+00  0.0000000000000E+00  0.0000000000000E+00
326  3.2500000000000E+00  0.0000000000000E+00  0.0000000000000E+00
327  3.2600000000000E+00  0.0000000000000E+00  0.0000000000000E+00
328  3.2700000000000E+00  0.0000000000000E+00  0.0000000000000E+00
329  3.2800000000000E+00  0.0000000000000E+00  0.0000000000000E+00
330  3.2900000000000E+00  0.0000000000000E+00  0.0000000000000E+00
331  3.3000000000000E+00  0.0000000000000E+00  0.0000000000000E+00
332  3.3100000000000E+00  0.0000000000000E+00  0.0000000000000E+00
333  3.3200000000000E+00  0.0000000000000E+00  0.0000000000000E+00
334  3.3300000000000E+00  0.0000000000000E+00  0.0000000000000E+00
335  3.3400000000000E+00  0.0000000000000E+00  0.0000000000000E+00
336  3.3500000000000E+00  0.0000000000000E+00  0.0000000000000E+00
337  3.3600000000000E+00  0.0000000000000E+00  0.0000000000000E+00
338  3.3700000000000E+00  0.0000000000000E+00  0.0000000000000E+00
339  3.3800000000000E+00  0.0000000000000E+00  0.0000000000000E+00
340  3.3900000000000E+00  0.0000000000000E+00  0.0000000000000E+00
341  3.4000000000000E+00  0.0000000000000E+00  0.0000000000000E+00
342  3.4100000000000E+00  0.0000000000000E+00  0.0000000000000E+00
343  3.4200000000000E+00  0.0000000000000E+00  0.0000000000000E+00
344  3.4300000000000E+00  0.0000000000000E+00  0.0000000000000E+00
345  3.4400000000000E+00  0.0000000000000E+00  0.0000000000000E+00
346  3.4500000000000E+00  0.0000000000000E+00  0.0000000000000E+00
347  3.4600000000000E+00  0.0000000000000E+00  0.0000000000000E+00
348  3.4700000000000E+00  0.0000000000000E+00  0.0000000000000E+00
349  3.4800000000000E+00  0.0000000000000E+00  0.0000000000000E+00
350  3.4900000000000E+00  0.0000000000000E+00  0.0000000000000E+00
351  3.5000000000000E+00  0.0000000000000E+00  0.0000000000000E+00
352  3.5100000000000E+00  0.0000000000000E+00  0.0000000000000E+00
353  3.5200000000000E+00  0.0000000000000E+00  0.0000000000000E+00
354  3.5300000000000E+00  0.0000000000000E+00  0.0000000000000E+00
355  3.5400000000000E+00  0.0000000000000E+00  0.0000000000000E+00
356  3.5500000000000E+00  0.0000000000000E+00  0.0000000000000E+00
357  3.5600000000000E+00  0.0000000000000E+00  0.0000000000000E+00
358  3.5700000000000E+00  0.0000000000000E+00  0.0000000000000E+00
359  3.5800000000000E+00  0.0000000000000E+00  0.0000000000000E+00
360  3.5900000000000E+00  0.0000000000000E+00  0.0000000000000E+00
361  3.6000000000000E+00  0.0000000000000E+00  0.0000000000000E+00
362  3.6100000000000E+00  0.0000000000000E+00  0.0000000000000E+00
363  3.6200000000000E+00  0.0000000000000E+00  0.0000000000000E+00
364  3.6300000000000E+00  0.0000000000000E+00  0.0000000000000E+00
365  3.6400000000000E+00  0.0000000000000E+00  0.0000000000000E+00
366  3.6500000000000E+00  0.0000000000000E+00  0.0000000000000E+00
367  3.6600000000000E+00  0.0000000000000E+00  0.0000000000000E+00
368  3.6700000000000E+00  0.0000000000000E+00  0.0000000000000E+00
369  3.6800000000000E+00  0.0000000000000E+00  0.0000000000000E+00
370  3.6900000000000E+00  0.0000000000000E+00  0.0000000000000E+00
371  3.7000000000000E+00  0.0000000000000E+00  0.0000000000000E+00
372  3.7100000000000E+00  0.0000000000000E+00  0.0000000000000E+00
373  3.7200000000000E+00  0.0000000000000E+00  0.0000000000000E+00
374  3.7300000000000E+00  0.0000000000000E+00  0.0000000000000E+00
375  3.7400000000000E+00  0.0000000000000E+00  0.0000000000000E+00
376  3.7500000000000E+00  0.0000000000000E+00  0.0000000000000E+00
377  3.7600000000000E+00  0.0000000000000E+00  0.0000000000000E+00
378  3.7700000000000E+00  0.0000000000000E+00  0.0000000000000E+00
379  3.7800000000000E+00  0.0000000000000E+00  0.0000000000000E+00
380  3.7900000000000E+00  0.0000000000000E+00  0.0000000000000E+00
381  3.8000000000000E+00  0.0000000000000E+00  0.0000000000000E+00
382  3.8100000000000E+00  0.0000000000000E+00  0.0000000000000E+00
383  3.8200000000000E+00  0.0000000000000E+00  0.0000000000000E+00
384  3.8300000000000E+00  0.0000000000000E+00  0.0000000000000E+00
385  3.8400000000000E+00  0.0000000000000E+00  0.0000000000000E+00
386  3.8500000000000E+00  0.0000000000000E+00  0.0000000000000E+00
387  3.8600000000000E+00  0.0000000000000E+00  0.0000000000000E+00
388  3.8700000000000E+00  0.0000000000000E+00  0.0000000000000E+00
389  3.8800000000000E+00  0.0000000000000E+00  0.0000000000000E+00
390  3.8900000000000E+00  0.0000000000000E+00  0.0000000000000E+00
391  3.9000000000000E+00  0.0000000000000E+00  0.0000000000000E+00
392  3.9100000000000E+00  0.0000000000000E+00  0.0000000000000E+00
393  3.9200000000000E+00  0.0000000000000E+00  0.0000000000000E+00
394  3.9300000000000E+00  0.0000000000000E+00  0.0000000000000E+00
395  3.9400000000000E+00  0.0000000000000E+00  0.0000000000000E+00
396  3.9500000000000E+00  0.0000000000000E+00  0.0000000000000E+00
397  3.9600000000000E+00  0.0000000000000E+00  0.0000000000000E+00
398  3.9700000000000E+00  0.0000000000000E+00  0.0000000000000E+00
399  3.9800000000000E+00  0.0000000000000E+00  0.0000000000000E+00
400  3.9900000000000E+00  0.0000000000000E+00  0.0000000000000E+00
401  4.0000000000000E+00  0.0000000000000E+00  0.0000000000000E+00
402  4.0100000000000E+00  0.0000000000000E+00  0.0000000000000E+00
403  4.0200000000000E+00  0.0000000000000E+00  0.0000000000000E+00
404  4.0300000000000E+00  0.0000000000000E+00  0.0000000000000E+00
405  4.0400000000000E+00  0.0000000000000E+00  0.0000000000000E+00
406  4.0500000000000E+00  0.0000000000000E+00  0.0000000000000E+00
407  4.0600000000000E+00  0.0000000000000E+00  0.0000000000000E+00
408  4.0700000000000E+00  0.0000000000000E+00  0.0000000000000E+00
409  4.0800000000000E+00  0.0000000000000E+00  0.0000000000000E+00
410  4.0900000000000E+00  0.0000000000000E+00  0.0000000000000E+00
411  4.1000000000000E+00  0.0000000000000E+00  0.0000000000000E+00
412  4.1100000000000E+00  0.0000000000000E+00  0.0000000000000E+00
413  4.1200000000000E+00  0.0000000000000E+00  0.0000000000000E+00
414  4.1300000000000E+00  0.0000000000000E+00  0.0000000000000E+00
415  4.1400000000000E+00  0.0000000000000E+00  0.0000000000000E+00
416  4.1500000000000E+00  0.0000000000000E+00  0.0000000000000E+00
417  4.1600000000000E+00  0.0000000000000E+00  0.0000000000000E+00
418  4.1700000000000E+00  0.0000000000000E+00  0.0000000000000E+00
419  4.1800000000000E+00  0.0000000000000E+00  0.0000000000000E+00
420  4.1900000000000E+00  0.0000000000000E+00  0.0000000000000E+00
421  4.2000000000000E+00  0.0000000000000E+00  0.0000000000000E+00
422  4.2100000000000E+00  0.0000000000000E+00  0.0000000000000E+00
423  4.2200000000000E+00  0.0000000000000E+00  0.0000000000000E+00
424  4.2300000000000E+00  0.0000000000000E+00  0.0000000000000E+00
425  4.2400000000000E+00  0.0000000000000E+00  0.0000000000000E+00
426  4.2500000000000E+00  0.0000000000000E+00  0.0000000000000E+00
427  4.2600000000000E+00  0.0000000000000E+00  0.0000000000000E+00
428  4.2700000000000E+00  0.0000000000000E+00  0.0000000000000E+00
429  4.2800000000000E+00  0.0000000000000E+00  0.0000000000000E+00
430  4.2900000000000E+00  0.0000000000000E+00  0.0000000000000E+00
431  4.3000000000000E+00  0.0000000000000E+00  0.0000000000000E+00
432  4.3100000000000E+00  0.0000000000000E+00  0.0000000000000E+00
433  4.3200000000000E+00  0.0000000000000E+00  0.0000000000000E+00
434  4.3300000000000E+00  0.0000000000000E+00  0.0000000000000E+00
435  4.3400000000000E+00  0.0000000000000E+00  0.0000000000000E+00
436  4.3500000000000E+00  0.0000000000000E+00  0.0000000000000E+00
437  4.3600000000000E+00  0.0000000000000E+00  0.0000000000000E+00
438  4.3700000000000E+00  0.0000000000000E+00  0.0000000000000E+00
439  4.3800000000000E+00  0.0000000000000E+00  0.0000000000000E+00
440  4.3900000000000E+00  0.0000000000000E+00  0.0000000000000E+00
441  4.4000000000000E+00  0.0000000000000E+00  0.0000000000000E+00
442  4.4100000000000E+00  0.0000000000000E+00  0.0000000000000E+00
443  4.4200000000000E+00  0.0000000000000E+00  0.0000000000000E+00