Sn    ONCVPSP-3.2.3.1  r_core=   1.31325   1.31325   1.51535
50.0000     22.0000      170510    zatom,zion,pspd
8      11   2     4   600     0    pspcod,pspxc,lmax,lloc,mmax,r2well
5.99000000  3.50000000  0.00000000    rchrg fchrg qchrg
2     2     2     0     0    nproj
1     1           extension_switch
0                         9.7017917893746E+00 -6.7120325063120E-01
1  0.0000000000000E+00  1.0778433701120E-10 -1.0387932181111E-08
2  1.0000000000000E-02  8.3590668564276E-02  8.0288620820599E-02
3  2.0000000000000E-02  1.6697300188770E-01  1.5983208108986E-01
4  3.0000000000000E-02  2.4993920548422E-01  2.3789472523395E-01
5  4.0000000000000E-02  3.3228256640009E-01  3.1375975295806E-01
6  5.0000000000000E-02  4.1379799400836E-01  3.8673826291011E-01
7  6.0000000000000E-02  4.9428256075907E-01  4.5617784312621E-01
8  7.0000000000000E-02  5.7353604274100E-01  5.2147056963123E-01
9  8.0000000000000E-02  6.5136145980305E-01  5.8206028495556E-01
10  9.0000000000000E-02  7.2756561485255E-01  6.3744904096912E-01
11  1.0000000000000E-01  8.0195963179557E-01  6.8720260510359E-01
12  1.1000000000000E-01  8.7435949141448E-01  7.3095494547786E-01
13  1.2000000000000E-01  9.4458656429328E-01  7.6841162836993E-01
14  1.3000000000000E-01  1.0124681397045E+00  7.9935208057657E-01
15  1.4000000000000E-01  1.0778379491676E+00  8.2363068913276E-01
16  1.5000000000000E-01  1.1405366831809E+00  8.4117673127518E-01
17  1.6000000000000E-01  1.2004124994204E+00  8.5199314806602E-01
18  1.7000000000000E-01  1.2573215204969E+00  8.5615419538094E-01
19  1.8000000000000E-01  1.3111283191660E+00  8.5380202564651E-01
20  1.9000000000000E-01  1.3617063887038E+00  8.4514227243726E-01
21  2.0000000000000E-01  1.4089385959959E+00  8.3043872747199E-01
22  2.1000000000000E-01  1.4527176147398E+00  8.1000721537127E-01
23  2.2000000000000E-01  1.4929463360406E+00  7.8420878546292E-01
24  2.3000000000000E-01  1.5295382535842E+00  7.5344235169616E-01
25  2.4000000000000E-01  1.5624178205091E+00  7.1813692112767E-01
26  2.5000000000000E-01  1.5915207750639E+00  6.7874355829859E-01
27  2.6000000000000E-01  1.6167944321436E+00  6.3572723699495E-01
28  2.7000000000000E-01  1.6381979378336E+00  5.8955873228998E-01
29  2.8000000000000E-01  1.6557024841719E+00  5.4070670436791E-01
30  2.9000000000000E-01  1.6692914814499E+00  4.8963012143579E-01
31  3.0000000000000E-01  1.6789606855309E+00  4.3677116210669E-01
32  3.1000000000000E-01  1.6847182778526E+00  3.8254872809390E-01
33  3.2000000000000E-01  1.6865848960103E+00  3.2735268605201E-01
34  3.3000000000000E-01  1.6845936130808E+00  2.7153894313996E-01
35  3.4000000000000E-01  1.6787898641405E+00  2.1542544461144E-01
36  3.5000000000000E-01  1.6692313187627E+00  1.5928916374264E-01
37  3.6000000000000E-01  1.6559876986288E+00  1.0336413500437E-01
38  3.7000000000000E-01  1.6391405397692E+00  4.7840560923292E-02
39  3.8000000000000E-01  1.6187828993468E+00 -7.1349980794333E-03
40  3.9000000000000E-01  1.5950190073098E+00 -6.1458363047229E-02
41  4.0000000000000E-01  1.5679638636664E+00 -1.1506543859748E-01
42  4.1000000000000E-01  1.5377427825642E+00 -1.6792893222952E-01
43  4.2000000000000E-01  1.5044908847938E+00 -2.2005416530185E-01
44  4.3000000000000E-01  1.4683525407605E+00 -2.7147406891817E-01
45  4.4000000000000E-01  1.4294807663951E+00 -3.2224347511558E-01
46  4.5000000000000E-01  1.3880365748793E+00 -3.7243282895246E-01
47  4.6000000000000E-01  1.3441882874513E+00 -4.2212146004256E-01
48  4.7000000000000E-01  1.2981108069255E+00 -4.7139056250850E-01
49  4.8000000000000E-01  1.2499848578967E+00 -5.2031604001029E-01
50  4.9000000000000E-01  1.1999961979092E+00 -5.6896137726092E-01
51  5.0000000000000E-01  1.1483348041406E+00 -6.1737070115372E-01
52  5.1000000000000E-01  1.0951940403859E+00 -6.6556219321335E-01
53  5.2000000000000E-01  1.0407698093158E+00 -7.1352201053329E-01
54  5.3000000000000E-01  9.8525969513205E-01 -7.6119886472644E-01
55  5.4000000000000E-01  9.2886210184300E-01 -8.0849939777023E-01
56  5.5000000000000E-01  8.7177539243513E-01 -8.5528448014152E-01
57  5.6000000000000E-01  8.1419703422200E-01 -9.0136654054386E-01
58  5.7000000000000E-01  7.5632275560823E-01 -9.4650801799382E-01
59  5.8000000000000E-01  6.9834571941493E-01 -9.9042100654461E-01
60  5.9000000000000E-01  6.4045571777354E-01 -1.0327681405598E+00
61  6.0000000000000E-01  5.8283839341237E-01 -1.0731647449532E+00
62  6.1000000000000E-01  5.2567449193076E-01 -1.1111822501627E+00
63  6.2000000000000E-01  4.6913914938956E-01 -1.1463528467537E+00
64  6.3000000000000E-01  4.1340121923877E-01 -1.1781753294257E+00
65  6.4000000000000E-01  3.5862264226407E-01 -1.2061220556568E+00
66  6.5000000000000E-01  3.0495786286397E-01 -1.2296469205804E+00
67  6.6000000000000E-01  2.5255329457156E-01 -1.2481942272871E+00
68  6.7000000000000E-01  2.0154683731800E-01 -1.2612083112711E+00
69  6.8000000000000E-01  1.5206744850076E-01 -1.2681437594285E+00
70  6.9000000000000E-01  1.0423476947149E-01 -1.2684760481994E+00
71  7.0000000000000E-01  5.8158808606252E-02 -1.2617124126660E+00
72  7.1000000000000E-01  1.3939681664504E-02 -1.2474027487668E+00
73  7.2000000000000E-01 -2.8332590308009E-02 -1.2251503445959E+00
74  7.3000000000000E-01 -6.8578225724410E-02 -1.1946222341670E+00
75  7.4000000000000E-01 -1.0672777047276E-01 -1.1555589681856E+00
76  7.5000000000000E-01 -1.4272213024275E-01 -1.1077836012956E+00
77  7.6000000000000E-01 -1.7651254859801E-01 -1.0512097039596E+00
78  7.7000000000000E-01 -2.0806053260015E-01 -9.8584821950158E-01
79  7.8000000000000E-01 -2.3733772813317E-01 -9.1181300268052E-01
80  7.9000000000000E-01 -2.6432574739085E-01 -8.2932489541460E-01
81  8.0000000000000E-01 -2.8901595126776E-01 -7.3871421741302E-01
82  8.1000000000000E-01 -3.1140918963955E-01 -6.4042157436319E-01
83  8.2000000000000E-01 -3.3151550272560E-01 -5.3499691346049E-01
84  8.3000000000000E-01 -3.4935378689698E-01 -4.2309678504536E-01
85  8.4000000000000E-01 -3.6495142842447E-01 -3.0547979943832E-01
86  8.5000000000000E-01 -3.7834390875480E-01 -1.8300029922414E-01
87  8.6000000000000E-01 -3.8957438495884E-01 -5.6600298692162E-02
88  8.7000000000000E-01 -3.9869324901433E-01  7.2700226662167E-02
89  8.8000000000000E-01 -4.0575766956864E-01  2.0381458728507E-01
90  8.9000000000000E-01 -4.1083111977642E-01  3.3560202105294E-01
91  9.0000000000000E-01 -4.1398289472408E-01  4.6688155967540E-01
92  9.1000000000000E-01 -4.1528762184112E-01  5.9644692587858E-01
93  9.2000000000000E-01 -4.1482476755918E-01  7.2308224541264E-01
94  9.3000000000000E-01 -4.1267814331676E-01  8.4557833942245E-01
95  9.4000000000000E-01 -4.0893541382372E-01  9.6274934790893E-01
96  9.5000000000000E-01 -4.0368761029777E-01  1.0734494242043E+00
97  9.6000000000000E-01 -3.9702865116840E-01  1.1765892339200E+00
98  9.7000000000000E-01 -3.8905487251915E-01  1.2711519896302E+00
99  9.8000000000000E-01 -3.7986457029860E-01  1.3562087551210E+00
100  9.9000000000000E-01 -3.6955755609406E-01  1.4309327600636E+00
101  1.0000000000000E+00 -3.5823472801779E-01  1.4946124775507E+00
102  1.0100000000000E+00 -3.4599765801468E-01  1.5466632329066E+00
103  1.0200000000000E+00 -3.3294819666347E-01  1.5866371322187E+00
104  1.0300000000000E+00 -3.1918809630636E-01  1.6142311240517E+00
105  1.0400000000000E+00 -3.0481865313503E-01  1.6292930329583E+00
106  1.0500000000000E+00 -2.8994036862699E-01  1.6318254371905E+00
107  1.0600000000000E+00 -2.7465263054202E-01  1.6219872942045E+00
108  1.0700000000000E+00 -2.5905341349721E-01  1.6000932534415E+00
109  1.0800000000000E+00 -2.4323899896166E-01  1.5666106345724E+00
110  1.0900000000000E+00 -2.2730371437255E-01  1.5221540827226E+00
111  1.1000000000000E+00 -2.1133969091456E-01  1.4674779554244E+00
112  1.1100000000000E+00 -1.9543663939445E-01  1.4034665307807E+00
113  1.1200000000000E+00 -1.7968164353208E-01  1.3311221644289E+00
114  1.1300000000000E+00 -1.6415896990336E-01  1.2515515565626E+00
115  1.1400000000000E+00 -1.4894989369606E-01  1.1659503226088E+00
116  1.1500000000000E+00 -1.3413253937734E-01  1.0755860944672E+00
117  1.1600000000000E+00 -1.1978173533667E-01  9.8178040295847E-01
118  1.1700000000000E+00 -1.0596888153935E-01  8.8588961395069E-01
119  1.1800000000000E+00 -9.2761829206205E-02  7.8928521129235E-01
120  1.1900000000000E+00 -8.0224771536215E-02  6.9333373402371E-01
121  1.2000000000000E+00 -6.8418144505006E-02  5.9937668100598E-01
122  1.2100000000000E+00 -5.7398536775552E-02  5.0871070273073E-01
123  1.2200000000000E+00 -4.7218607800124E-02  4.2256839971316E-01
124  1.2300000000000E+00 -3.7927013230890E-02  3.4210003547693E-01
125  1.2400000000000E+00 -2.9568336787270E-02  2.6835646564736E-01
126  1.2500000000000E+00 -2.2183027782018E-02  2.0227356985258E-01
127  1.2600000000000E+00 -1.5807343581694E-02  1.4465844158400E-01
128  1.2700000000000E+00 -1.0474862644499E-02  9.6192340205377E-02
129  1.2800000000000E+00 -6.2101626568320E-03  5.7361966036630E-02
130  1.2900000000000E+00 -3.0184364428002E-03  2.8344998860113E-02
131  1.3000000000000E+00 -9.9698925718997E-04  1.0132726504224E-02
132  1.3100000000000E+00 -9.6500161412024E-05  2.0941999177940E-03
133  1.3200000000000E+00  7.8148183124078E-05 -2.1901044981742E-05
134  1.3300000000000E+00 -5.8950312038238E-06  1.7738658871739E-05
135  1.3400000000000E+00 -1.7566024294284E-05  6.8997816150184E-05
136  1.3500000000000E+00  3.7759216557810E-06 -9.2138765867667E-06
137  1.3600000000000E+00  8.4846937730509E-07 -2.4295105319699E-06
138  1.3700000000000E+00 -4.6388754469035E-08 -2.7647979338653E-06
139  1.3800000000000E+00  0.0000000000000E+00  0.0000000000000E+00
140  1.3900000000000E+00  0.0000000000000E+00  0.0000000000000E+00
141  1.4000000000000E+00  0.0000000000000E+00  0.0000000000000E+00
142  1.4100000000000E+00  0.0000000000000E+00  0.0000000000000E+00
143  1.4200000000000E+00  0.0000000000000E+00  0.0000000000000E+00
144  1.4300000000000E+00  0.0000000000000E+00  0.0000000000000E+00
145  1.4400000000000E+00  0.0000000000000E+00  0.0000000000000E+00
146  1.4500000000000E+00  0.0000000000000E+00  0.0000000000000E+00
147  1.4600000000000E+00  0.0000000000000E+00  0.0000000000000E+00
148  1.4700000000000E+00  0.0000000000000E+00  0.0000000000000E+00
149  1.4800000000000E+00  0.0000000000000E+00  0.0000000000000E+00
150  1.4900000000000E+00  0.0000000000000E+00  0.0000000000000E+00
151  1.5000000000000E+00  0.0000000000000E+00  0.0000000000000E+00
152  1.5100000000000E+00  0.0000000000000E+00  0.0000000000000E+00
153  1.5200000000000E+00  0.0000000000000E+00  0.0000000000000E+00
154  1.5300000000000E+00  0.0000000000000E+00  0.0000000000000E+00
155  1.5400000000000E+00  0.0000000000000E+00  0.0000000000000E+00
156  1.5500000000000E+00  0.0000000000000E+00  0.0000000000000E+00
157  1.5600000000000E+00  0.0000000000000E+00  0.0000000000000E+00
158  1.5700000000000E+00  0.0000000000000E+00  0.0000000000000E+00
159  1.5800000000000E+00  0.0000000000000E+00  0.0000000000000E+00
160  1.5900000000000E+00  0.0000000000000E+00  0.0000000000000E+00
161  1.6000000000000E+00  0.0000000000000E+00  0.0000000000000E+00
162  1.6100000000000E+00  0.0000000000000E+00  0.0000000000000E+00
163  1.6200000000000E+00  0.0000000000000E+00  0.0000000000000E+00
164  1.6300000000000E+00  0.0000000000000E+00  0.0000000000000E+00
165  1.6400000000000E+00  0.0000000000000E+00  0.0000000000000E+00
166  1.6500000000000E+00  0.0000000000000E+00  0.0000000000000E+00
167  1.6600000000000E+00  0.0000000000000E+00  0.0000000000000E+00
168  1.6700000000000E+00  0.0000000000000E+00  0.0000000000000E+00
169  1.6800000000000E+00  0.0000000000000E+00  0.0000000000000E+00
170  1.6900000000000E+00  0.0000000000000E+00  0.0000000000000E+00
171  1.7000000000000E+00  0.0000000000000E+00  0.0000000000000E+00
172  1.7100000000000E+00  0.0000000000000E+00  0.0000000000000E+00
173  1.7200000000000E+00  0.0000000000000E+00  0.0000000000000E+00
174  1.7300000000000E+00  0.0000000000000E+00  0.0000000000000E+00
175  1.7400000000000E+00  0.0000000000000E+00  0.0000000000000E+00
176  1.7500000000000E+00  0.0000000000000E+00  0.0000000000000E+00
177  1.7600000000000E+00  0.0000000000000E+00  0.0000000000000E+00
178  1.7700000000000E+00  0.0000000000000E+00  0.0000000000000E+00
179  1.7800000000000E+00  0.0000000000000E+00  0.0000000000000E+00
180  1.7900000000000E+00  0.0000000000000E+00  0.0000000000000E+00
181  1.8000000000000E+00  0.0000000000000E+00  0.0000000000000E+00
182  1.8100000000000E+00  0.0000000000000E+00  0.0000000000000E+00
183  1.8200000000000E+00  0.0000000000000E+00  0.0000000000000E+00
184  1.8300000000000E+00  0.0000000000000E+00  0.0000000000000E+00
185  1.8400000000000E+00  0.0000000000000E+00  0.0000000000000E+00
186  1.8500000000000E+00  0.0000000000000E+00  0.0000000000000E+00
187  1.8600000000000E+00  0.0000000000000E+00  0.0000000000000E+00
188  1.8700000000000E+00  0.0000000000000E+00  0.0000000000000E+00
189  1.8800000000000E+00  0.0000000000000E+00  0.0000000000000E+00
190  1.8900000000000E+00  0.0000000000000E+00  0.0000000000000E+00
191  1.9000000000000E+00  0.0000000000000E+00  0.0000000000000E+00
192  1.9100000000000E+00  0.0000000000000E+00  0.0000000000000E+00
193  1.9200000000000E+00  0.0000000000000E+00  0.0000000000000E+00
194  1.9300000000000E+00  0.0000000000000E+00  0.0000000000000E+00
195  1.9400000000000E+00  0.0000000000000E+00  0.0000000000000E+00
196  1.9500000000000E+00  0.0000000000000E+00  0.0000000000000E+00
197  1.9600000000000E+00  0.0000000000000E+00  0.0000000000000E+00
198  1.9700000000000E+00  0.0000000000000E+00  0.0000000000000E+00
199  1.9800000000000E+00  0.0000000000000E+00  0.0000000000000E+00
200  1.9900000000000E+00  0.0000000000000E+00  0.0000000000000E+00
201  2.0000000000000E+00  0.0000000000000E+00  0.0000000000000E+00
202  2.0100000000000E+00  0.0000000000000E+00  0.0000000000000E+00
203  2.0200000000000E+00  0.0000000000000E+00  0.0000000000000E+00
204  2.0300000000000E+00  0.0000000000000E+00  0.0000000000000E+00
205  2.0400000000000E+00  0.0000000000000E+00  0.0000000000000E+00
206  2.0500000000000E+00  0.0000000000000E+00  0.0000000000000E+00
207  2.0600000000000E+00  0.0000000000000E+00  0.0000000000000E+00
208  2.0700000000000E+00  0.0000000000000E+00  0.0000000000000E+00
209  2.0800000000000E+00  0.0000000000000E+00  0.0000000000000E+00
210  2.0900000000000E+00  0.0000000000000E+00  0.0000000000000E+00
211  2.1000000000000E+00  0.0000000000000E+00  0.0000000000000E+00
212  2.1100000000000E+00  0.0000000000000E+00  0.0000000000000E+00
213  2.1200000000000E+00  0.0000000000000E+00  0.0000000000000E+00
214  2.1300000000000E+00  0.0000000000000E+00  0.0000000000000E+00
215  2.1400000000000E+00  0.0000000000000E+00  0.0000000000000E+00
216  2.1500000000000E+00  0.0000000000000E+00  0.0000000000000E+00
217  2.1600000000000E+00  0.0000000000000E+00  0.0000000000000E+00
218  2.1700000000000E+00  0.0000000000000E+00  0.0000000000000E+00
219  2.1800000000000E+00  0.0000000000000E+00  0.0000000000000E+00
220  2.1900000000000E+00  0.0000000000000E+00  0.0000000000000E+00
221  2.2000000000000E+00  0.0000000000000E+00  0.0000000000000E+00
222  2.2100000000000E+00  0.0000000000000E+00  0.0000000000000E+00
223  2.2200000000000E+00  0.0000000000000E+00  0.0000000000000E+00
224  2.2300000000000E+00  0.0000000000000E+00  0.0000000000000E+00
225  2.2400000000000E+00  0.0000000000000E+00  0.0000000000000E+00
226  2.2500000000000E+00  0.0000000000000E+00  0.0000000000000E+00
227  2.2600000000000E+00  0.0000000000000E+00  0.0000000000000E+00
228  2.2700000000000E+00  0.0000000000000E+00  0.0000000000000E+00
229  2.2800000000000E+00  0.0000000000000E+00  0.0000000000000E+00
230  2.2900000000000E+00  0.0000000000000E+00  0.0000000000000E+00
231  2.3000000000000E+00  0.0000000000000E+00  0.0000000000000E+00
232  2.3100000000000E+00  0.0000000000000E+00  0.0000000000000E+00
233  2.3200000000000E+00  0.0000000000000E+00  0.0000000000000E+00
234  2.3300000000000E+00  0.0000000000000E+00  0.0000000000000E+00
235  2.3400000000000E+00  0.0000000000000E+00  0.0000000000000E+00
236  2.3500000000000E+00  0.0000000000000E+00  0.0000000000000E+00
237  2.3600000000000E+00  0.0000000000000E+00  0.0000000000000E+00
238  2.3700000000000E+00  0.0000000000000E+00  0.0000000000000E+00
239  2.3800000000000E+00  0.0000000000000E+00  0.0000000000000E+00
240  2.3900000000000E+00  0.0000000000000E+00  0.0000000000000E+00
241  2.4000000000000E+00  0.0000000000000E+00  0.0000000000000E+00
242  2.4100000000000E+00  0.0000000000000E+00  0.0000000000000E+00
243  2.4200000000000E+00  0.0000000000000E+00  0.0000000000000E+00
244  2.4300000000000E+00  0.0000000000000E+00  0.0000000000000E+00
245  2.4400000000000E+00  0.0000000000000E+00  0.0000000000000E+00
246  2.4500000000000E+00  0.0000000000000E+00  0.0000000000000E+00
247  2.4600000000000E+00  0.0000000000000E+00  0.0000000000000E+00
248  2.4700000000000E+00  0.0000000000000E+00  0.0000000000000E+00
249  2.4800000000000E+00  0.0000000000000E+00  0.0000000000000E+00
250  2.4900000000000E+00  0.0000000000000E+00  0.0000000000000E+00
251  2.5000000000000E+00  0.0000000000000E+00  0.0000000000000E+00
252  2.5100000000000E+00  0.0000000000000E+00  0.0000000000000E+00
253  2.5200000000000E+00  0.0000000000000E+00  0.0000000000000E+00
254  2.5300000000000E+00  0.0000000000000E+00  0.0000000000000E+00
255  2.5400000000000E+00  0.0000000000000E+00  0.0000000000000E+00
256  2.5500000000000E+00  0.0000000000000E+00  0.0000000000000E+00
257  2.5600000000000E+00  0.0000000000000E+00  0.0000000000000E+00
258  2.5700000000000E+00  0.0000000000000E+00  0.0000000000000E+00
259  2.5800000000000E+00  0.0000000000000E+00  0.0000000000000E+00
260  2.5900000000000E+00  0.0000000000000E+00  0.0000000000000E+00
261  2.6000000000000E+00  0.0000000000000E+00  0.0000000000000E+00
262  2.6100000000000E+00  0.0000000000000E+00  0.0000000000000E+00
263  2.6200000000000E+00  0.0000000000000E+00  0.0000000000000E+00
264  2.6300000000000E+00  0.0000000000000E+00  0.0000000000000E+00
265  2.6400000000000E+00  0.0000000000000E+00  0.0000000000000E+00
266  2.6500000000000E+00  0.0000000000000E+00  0.0000000000000E+00
267  2.6600000000000E+00  0.0000000000000E+00  0.0000000000000E+00
268  2.6700000000000E+00  0.0000000000000E+00  0.0000000000000E+00
269  2.6800000000000E+00  0.0000000000000E+00  0.0000000000000E+00
270  2.6900000000000E+00  0.0000000000000E+00  0.0000000000000E+00
271  2.7000000000000E+00  0.0000000000000E+00  0.0000000000000E+00
272  2.7100000000000E+00  0.0000000000000E+00  0.0000000000000E+00
273  2.7200000000000E+00  0.0000000000000E+00  0.0000000000000E+00
274  2.7300000000000E+00  0.0000000000000E+00  0.0000000000000E+00
275  2.7400000000000E+00  0.0000000000000E+00  0.0000000000000E+00
276  2.7500000000000E+00  0.0000000000000E+00  0.0000000000000E+00
277  2.7600000000000E+00  0.0000000000000E+00  0.0000000000000E+00
278  2.7700000000000E+00  0.0000000000000E+00  0.0000000000000E+00
279  2.7800000000000E+00  0.0000000000000E+00  0.0000000000000E+00
280  2.7900000000000E+00  0.0000000000000E+00  0.0000000000000E+00
281  2.8000000000000E+00  0.0000000000000E+00  0.0000000000000E+00
282  2.8100000000000E+00  0.0000000000000E+00  0.0000000000000E+00
283  2.8200000000000E+00  0.0000000000000E+00  0.0000000000000E+00
284  2.8300000000000E+00  0.0000000000000E+00  0.0000000000000E+00
285  2.8400000000000E+00  0.0000000000000E+00  0.0000000000000E+00
286  2.8500000000000E+00  0.0000000000000E+00  0.0000000000000E+00
287  2.8600000000000E+00  0.0000000000000E+00  0.0000000000000E+00
288  2.8700000000000E+00  0.0000000000000E+00  0.0000000000000E+00
289  2.8800000000000E+00  0.0000000000000E+00  0.0000000000000E+00
290  2.8900000000000E+00  0.0000000000000E+00  0.0000000000000E+00
291  2.9000000000000E+00  0.0000000000000E+00  0.0000000000000E+00
292  2.9100000000000E+00  0.0000000000000E+00  0.0000000000000E+00
293  2.9200000000000E+00  0.0000000000000E+00  0.0000000000000E+00
294  2.9300000000000E+00  0.0000000000000E+00  0.0000000000000E+00
295  2.9400000000000E+00  0.0000000000000E+00  0.0000000000000E+00
296  2.9500000000000E+00  0.0000000000000E+00  0.0000000000000E+00
297  2.9600000000000E+00  0.0000000000000E+00  0.0000000000000E+00
298  2.9700000000000E+00  0.0000000000000E+00  0.0000000000000E+00
299  2.9800000000000E+00  0.0000000000000E+00  0.0000000000000E+00
300  2.9900000000000E+00  0.0000000000000E+00  0.0000000000000E+00
301  3.0000000000000E+00  0.0000000000000E+00  0.0000000000000E+00
302  3.0100000000000E+00  0.0000000000000E+00  0.0000000000000E+00
303  3.0200000000000E+00  0.0000000000000E+00  0.0000000000000E+00
304  3.0300000000000E+00  0.0000000000000E+00  0.0000000000000E+00
305  3.0400000000000E+00  0.0000000000000E+00  0.0000000000000E+00
306  3.0500000000000E+00  0.0000000000000E+00  0.0000000000000E+00
307  3.0600000000000E+00  0.0000000000000E+00  0.0000000000000E+00
308  3.0700000000000E+00  0.0000000000000E+00  0.0000000000000E+00
309  3.0800000000000E+00  0.0000000000000E+00  0.0000000000000E+00
310  3.0900000000000E+00  0.0000000000000E+00  0.0000000000000E+00
311  3.1000000000000E+00  0.0000000000000E+00  0.0000000000000E+00
312  3.1100000000000E+00  0.0000000000000E+00  0.0000000000000E+00
313  3.1200000000000E+00  0.0000000000000E+00  0.0000000000000E+00
314  3.1300000000000E+00  0.0000000000000E+00  0.0000000000000E+00
315  3.1400000000000E+00  0.0000000000000E+00  0.0000000000000E+00
316  3.1500000000000E+00  0.0000000000000E+00  0.0000000000000E+00
317  3.1600000000000E+00  0.0000000000000E+00  0.0000000000000E+00
318  3.1700000000000E+00  0.0000000000000E+00  0.0000000000000E+00
319  3.1800000000000E+00  0.0000000000000E+00  0.0000000000000E+00
320  3.1900000000000E+00  0.0000000000000E+00  0.0000000000000E+00
321  3.2000000000000E+00  0.0000000000000E+00  0.0000000000000E+00
322  3.2100000000000E+00  0.0000000000000E+00  0.0000000000000E+00
323  3.2200000000000E+00  0.0000000000000E+00  0.0000000000000E+00
324  3.2300000000000E+00  0.0000000000000E+00  0.0000000000000E+00
325  3.2400000000000E+00  0.0000000000000E+00  0.0000000000000E+00
326  3.2500000000000E+00  0.0000000000000E+00  0.0000000000000E+00
327  3.2600000000000E+00  0.0000000000000E+00  0.0000000000000E+00
328  3.2700000000000E+00  0.0000000000000E+00  0.0000000000000E+00
329  3.2800000000000E+00  0.0000000000000E+00  0.0000000000000E+00
330  3.2900000000000E+00  0.0000000000000E+00  0.0000000000000E+00
331  3.3000000000000E+00  0.0000000000000E+00  0.0000000000000E+00
332  3.3100000000000E+00  0.0000000000000E+00  0.0000000000000E+00
333  3.3200000000000E+00  0.0000000000000E+00  0.0000000000000E+00
334  3.3300000000000E+00  0.0000000000000E+00  0.0000000000000E+00
335  3.3400000000000E+00  0.0000000000000E+00  0.0000000000000E+00
336  3.3500000000000E+00  0.0000000000000E+00  0.0000000000000E+00
337  3.3600000000000E+00  0.0000000000000E+00  0.0000000000000E+00
338  3.3700000000000E+00  0.0000000000000E+00  0.0000000000000E+00
339  3.3800000000000E+00  0.0000000000000E+00  0.0000000000000E+00
340  3.3900000000000E+00  0.0000000000000E+00  0.0000000000000E+00
341  3.4000000000000E+00  0.0000000000000E+00  0.0000000000000E+00
342  3.4100000000000E+00  0.0000000000000E+00  0.0000000000000E+00
343  3.4200000000000E+00  0.0000000000000E+00  0.0000000000000E+00
344  3.4300000000000E+00  0.0000000000000E+00  0.0000000000000E+00
345  3.4400000000000E+00  0.0000000000000E+00  0.0000000000000E+00
346  3.4500000000000E+00  0.0000000000000E+00  0.0000000000000E+00
347  3.4600000000000E+00  0.0000000000000E+00  0.0000000000000E+00
348  3.4700000000000E+00  0.0000000000000E+00  0.0000000000000E+00
349  3.4800000000000E+00  0.0000000000000E+00  0.0000000000000E+00
350  3.4900000000000E+00  0.0000000000000E+00  0.0000000000000E+00
351  3.5000000000000E+00  0.0000000000000E+00  0.0000000000000E+00
352  3.5100000000000E+00  0.0000000000000E+00  0.0000000000000E+00
353  3.5200000000000E+00  0.0000000000000E+00  0.0000000000000E+00
354  3.5300000000000E+00  0.0000000000000E+00  0.0000000000000E+00
355  3.5400000000000E+00  0.0000000000000E+00  0.0000000000000E+00
356  3.5500000000000E+00  0.0000000000000E+00  0.0000000000000E+00
357  3.5600000000000E+00  0.0000000000000E+00  0.0000000000000E+00
358  3.5700000000000E+00  0.0000000000000E+00  0.0000000000000E+00
359  3.5800000000000E+00  0.0000000000000E+00  0.0000000000000E+00
360  3.5900000000000E+00  0.0000000000000E+00  0.0000000000000E+00
361  3.6000000000000E+00  0.0000000000000E+00  0.0000000000000E+00
362  3.6100000000000E+00  0.0000000000000E+00  0.0000000000000E+00
363  3.6200000000000E+00  0.0000000000000E+00  0.0000000000000E+00
364  3.6300000000000E+00  0.0000000000000E+00  0.0000000000000E+00
365  3.6400000000000E+00  0.0000000000000E+00  0.0000000000000E+00
366  3.6500000000000E+00  0.0000000000000E+00  0.0000000000000E+00
367  3.6600000000000E+00  0.0000000000000E+00  0.0000000000000E+00
368  3.6700000000000E+00  0.0000000000000E+00  0.0000000000000E+00
369  3.6800000000000E+00  0.0000000000000E+00  0.0000000000000E+00
370  3.6900000000000E+00  0.0000000000000E+00  0.0000000000000E+00
371  3.7000000000000E+00  0.0000000000000E+00  0.0000000000000E+00
372  3.7100000000000E+00  0.0000000000000E+00  0.0000000000000E+00
373  3.7200000000000E+00  0.0000000000000E+00  0.0000000000000E+00
374  3.7300000000000E+00  0.0000000000000E+00  0.0000000000000E+00
375  3.7400000000000E+00  0.0000000000000E+00  0.0000000000000E+00
376  3.7500000000000E+00  0.0000000000000E+00  0.0000000000000E+00
377  3.7600000000000E+00  0.0000000000000E+00  0.0000000000000E+00
378  3.7700000000000E+00  0.0000000000000E+00  0.0000000000000E+00
379  3.7800000000000E+00  0.0000000000000E+00  0.0000000000000E+00
380  3.7900000000000E+00  0.0000000000000E+00  0.0000000000000E+00
381  3.8000000000000E+00  0.0000000000000E+00  0.0000000000000E+00
382  3.8100000000000E+00  0.0000000000000E+00  0.0000000000000E+00
383  3.8200000000000E+00  0.0000000000000E+00  0.0000000000000E+00
384  3.8300000000000E+00  0.0000000000000E+00  0.0000000000000E+00
385  3.8400000000000E+00  0.0000000000000E+00  0.0000000000000E+00
386  3.8500000000000E+00  0.0000000000000E+00  0.0000000000000E+00
387  3.8600000000000E+00  0.0000000000000E+00  0.0000000000000E+00
388  3.8700000000000E+00  0.0000000000000E+00  0.0000000000000E+00
389  3.8800000000000E+00  0.0000000000000E+00  0.0000000000000E+00
390  3.8900000000000E+00  0.0000000000000E+00  0.0000000000000E+00
391  3.9000000000000E+00  0.0000000000000E+00  0.0000000000000E+00
392  3.9100000000000E+00  0.0000000000000E+00  0.0000000000000E+00
393  3.9200000000000E+00  0.0000000000000E+00  0.0000000000000E+00
394  3.9300000000000E+00  0.0000000000000E+00  0.0000000000000E+00
395  3.9400000000000E+00  0.0000000000000E+00  0.0000000000000E+00
396  3.9500000000000E+00  0.0000000000000E+00  0.0000000000000E+00
397  3.9600000000000E+00  0.0000000000000E+00  0.0000000000000E+00
398  3.9700000000000E+00  0.0000000000000E+00  0.0000000000000E+00
399  3.9800000000000E+00  0.0000000000000E+00  0.0000000000000E+00
400  3.9900000000000E+00  0.0000000000000E+00  0.0000000000000E+00
401  4.0000000000000E+00  0.0000000000000E+00  0.0000000000000E+00
402  4.0100000000000E+00  0.0000000000000E+00  0.0000000000000E+00
403  4.0200000000000E+00  0.0000000000000E+00  0.0000000000000E+00
404  4.0300000000000E+00  0.0000000000000E+00  0.0000000000000E+00
405  4.0400000000000E+00  0.0000000000000E+00  0.0000000000000E+00
406  4.0500000000000E+00  0.0000000000000E+00  0.0000000000000E+00
407  4.0600000000000E+00  0.0000000000000E+00  0.0000000000000E+00
408  4.0700000000000E+00  0.0000000000000E+00  0.0000000000000E+00
409  4.0800000000000E+00  0.0000000000000E+00  0.0000000000000E+00
410  4.0900000000000E+00  0.0000000000000E+00  0.0000000000000E+00
411  4.1000000000000E+00  0.0000000000000E+00  0.0000000000000E+00
412  4.1100000000000E+00  0.0000000000000E+00  0.0000000000000E+00
413  4.1200000000000E+00  0.0000000000000E+00  0.0000000000000E+00
414  4.1300000000000E+00  0.0000000000000E+00  0.0000000000000E+00
415  4.1400000000000E+00  0.0000000000000E+00  0.0000000000000E+00
416  4.1500000000000E+00  0.0000000000000E+00  0.0000000000000E+00
417  4.1600000000000E+00  0.0000000000000E+00  0.0000000000000E+00
418  4.1700000000000E+00  0.0000000000000E+00  0.0000000000000E+00
419  4.1800000000000E+00  0.0000000000000E+00  0.0000000000000E+00
420  4.1900000000000E+00  0.0000000000000E+00  0.0000000000000E+00
421  4.2000000000000E+00  0.0000000000000E+00  0.0000000000000E+00
422  4.2100000000000E+00  0.0000000000000E+00  0.0000000000000E+00
423  4.2200000000000E+00  0.0000000000000E+00  0.0000000000000E+00
424  4.2300000000000E+00  0.0000000000000E+00  0.0000000000000E+00
425  4.2400000000000E+00  0.0000000000000E+00  0.0000000000000E+00
426  4.2500000000000E+00  0.0000000000000E+00  0.0000000000000E+00
427  4.2600000000000E+00  0.0000000000000E+00  0.0000000000000E+00
428  4.2700000000000E+00  0.0000000000000E+00  0.0000000000000E+00
429  4.2800000000000E+00  0.0000000000000E+00  0.0000000000000E+00
430  4.2900000000000E+00  0.0000000000000E+00  0.0000000000000E+00
431  4.3000000000000E+00  0.0000000000000E+00  0.0000000000000E+00
432  4.3100000000000E+00  0.0000000000000E+00  0.0000000000000E+00
433  4.3200000000000E+00  0.0000000000000E+00  0.0000000000000E+00
434  4.3300000000000E+00  0.0000000000000E+00  0.0000000000000E+00
435  4.3400000000000E+00  0.0000000000000E+00  0.0000000000000E+00
436  4.3500000000000E+00  0.0000000000000E+00  0.0000000000000E+00
437  4.3600000000000E+00  0.0000000000000E+00  0.0000000000000E+00
438  4.3700000000000E+00  0.0000000000000E+00  0.0000000000000E+00
439  4.3800000000000E+00  0.0000000000000E+00  0.0000000000000E+00
440  4.3900000000000E+00  0.0000000000000E+00  0.0000000000000E+00
441  4.4000000000000E+00  0.0000000000000E+00  0.0000000000000E+00
442  4.4100000000000E+00  0.0000000000000E+00  0.0000000000000E+00
443  4.4200000000000E+00  0.0000000000000E+00  0.0000000000000E+00