Sb    ONCVPSP-3.2.3.1  r_core=   1.30295   1.30295   1.50346
51.0000     23.0000      170510    zatom,zion,pspd
8      11   2     4   600     0    pspcod,pspxc,lmax,lloc,mmax,r2well
5.99000000  5.00000000  0.00000000    rchrg fchrg qchrg
2     2     2     0     0    nproj
1     1           extension_switch
0                         9.5186557074572E+00 -5.5560723649104E-01
1  0.0000000000000E+00 -1.1517453657461E-10 -1.2172019503431E-08
2  1.0000000000000E-02  8.7161673663193E-02  7.7889541091506E-02
3  2.0000000000000E-02  1.7408653048573E-01  1.5500382896984E-01
4  3.0000000000000E-02  2.6053855216341E-01  2.3057815975099E-01
5  4.0000000000000E-02  3.4628331399581E-01  3.0386875047746E-01
6  5.0000000000000E-02  4.3108877304552E-01  3.7416275843501E-01
7  6.0000000000000E-02  5.1472604600975E-01  4.4078777994875E-01
8  7.0000000000000E-02  5.9697017351305E-01  5.0312066974222E-01
9  8.0000000000000E-02  6.7760086764487E-01  5.6059553411482E-01
10  9.0000000000000E-02  7.5640323970622E-01  6.1271076599714E-01
11  1.0000000000000E-01  8.3316850529239E-01  6.5903500711640E-01
12  1.1000000000000E-01  9.0769466402219E-01  6.9921194173980E-01
13  1.2000000000000E-01  9.7978715142390E-01  7.3296384741826E-01
14  1.3000000000000E-01  1.0492594607021E+00  7.6009385045305E-01
15  1.4000000000000E-01  1.1159337323340E+00  7.8048685705306E-01
16  1.5000000000000E-01  1.1796413096733E+00  7.9410915492411E-01
17  1.6000000000000E-01  1.2402232589759E+00  8.0100670390632E-01
18  1.7000000000000E-01  1.2975308524914E+00  8.0130215781874E-01
19  1.8000000000000E-01  1.3514260134962E+00  7.9519068245820E-01
20  1.9000000000000E-01  1.4017817223643E+00  7.8293465631394E-01
21  2.0000000000000E-01  1.4484823829808E+00  7.6485736060910E-01
22  2.1000000000000E-01  1.4914241490035E+00  7.4133578339338E-01
23  2.2000000000000E-01  1.5305152096556E+00  7.1279267825355E-01
24  2.3000000000000E-01  1.5656760348972E+00  6.7968803148416E-01
25  2.4000000000000E-01  1.5968395799654E+00  6.4251010201570E-01
26  2.5000000000000E-01  1.6239514493948E+00  6.0176620583224E-01
27  2.6000000000000E-01  1.6469700207315E+00  5.5797342087398E-01
28  2.7000000000000E-01  1.6658665282304E+00  5.1164938942007E-01
29  2.8000000000000E-01  1.6806251068850E+00  4.6330339265004E-01
30  2.9000000000000E-01  1.6912427971751E+00  4.1342786651204E-01
31  3.0000000000000E-01  1.6977295109359E+00  3.6249051926938E-01
32  3.1000000000000E-01  1.7001079587545E+00  3.1092719929384E-01
33  3.2000000000000E-01  1.6984135392869E+00  2.5913564702880E-01
34  3.3000000000000E-01  1.6926941908622E+00  2.0747024780471E-01
35  3.4000000000000E-01  1.6830102057134E+00  1.5623788266115E-01
36  3.5000000000000E-01  1.6694340071311E+00  1.0569495285638E-01
37  3.6000000000000E-01  1.6520498898023E+00  5.6045630714117E-02
38  3.7000000000000E-01  1.6309537235606E+00  7.4413652828975E-03
39  3.8000000000000E-01  1.6062526207434E+00 -4.0018353590403E-02
40  3.9000000000000E-01  1.5780645673378E+00 -8.6283994286432E-02
41  4.0000000000000E-01  1.5465180180897E+00 -1.3135279194285E-01
42  4.1000000000000E-01  1.5117514557670E+00 -1.7526443708648E-01
43  4.2000000000000E-01  1.4739129148049E+00 -2.1809573800763E-01
44  4.3000000000000E-01  1.4331594696183E+00 -2.5995437195780E-01
45  4.4000000000000E-01  1.3896566879542E+00 -3.0097185967505E-01
46  4.5000000000000E-01  1.3435780497738E+00 -3.4129591475757E-01
47  4.6000000000000E-01  1.2951043322933E+00 -3.8108233367000E-01
48  4.7000000000000E-01  1.2444229619928E+00 -4.2048660337562E-01
49  4.8000000000000E-01  1.1917273346021E+00 -4.5965541149418E-01
50  4.9000000000000E-01  1.1372161043103E+00 -4.9871824830021E-01
51  5.0000000000000E-01  1.0810924437045E+00 -5.3777929067030E-01
52  5.1000000000000E-01  1.0235632762318E+00 -5.7690975519523E-01
53  5.2000000000000E-01  9.6483848328683E-01 -6.1614090111182E-01
54  5.3000000000000E-01  9.0513008835607E-01 -6.5545785352955E-01
55  5.4000000000000E-01  8.4465142098940E-01 -6.9479440378242E-01
56  5.5000000000000E-01  7.8361626372281E-01 -7.3402892686202E-01
57  5.6000000000000E-01  7.2223798542830E-01 -7.7298153596332E-01
58  5.7000000000000E-01  6.6072866491828E-01 -8.1141257167062E-01
59  5.8000000000000E-01  5.9929820897410E-01 -8.4902249845123E-01
60  5.9000000000000E-01  5.3815346929377E-01 -8.8545325449286E-01
61  6.0000000000000E-01  4.7749736315689E-01 -9.2029107283831E-01
62  6.1000000000000E-01  4.1752800287786E-01 -9.5307076292999E-01
63  6.2000000000000E-01  3.5843783935521E-01 -9.8328141231799E-01
64  6.3000000000000E-01  3.0041282521767E-01 -1.0103734393921E+00
65  6.4000000000000E-01  2.4363160321206E-01 -1.0337668995463E+00
66  6.5000000000000E-01  1.8826472556630E-01 -1.0528609202726E+00
67  6.6000000000000E-01  1.3447391008985E-01 -1.0670441155046E+00
68  6.7000000000000E-01  8.2411338737523E-02 -1.0757058065961E+00
69  6.8000000000000E-01  3.2219004258132E-02 -1.0782478572948E+00
70  6.9000000000000E-01 -1.5971889624465E-02 -1.0740969132300E+00
71  7.0000000000000E-01 -6.2041469298656E-02 -1.0627168230822E+00
72  7.1000000000000E-01 -1.0588166874042E-01 -1.0436210092669E+00
73  7.2000000000000E-01 -1.4739663888898E-01 -1.0163845507005E+00
74  7.3000000000000E-01 -1.8650308489564E-01 -9.8065573926851E-01
75  7.4000000000000E-01 -2.2313052774821E-01 -9.3616687507226E-01
76  7.5000000000000E-01 -2.5722148736496E-01 -8.8274407343261E-01
77  7.6000000000000E-01 -2.8873158489995E-01 -8.2031586885538E-01
78  7.7000000000000E-01 -3.1762956270083E-01 -7.4892041762037E-01
79  7.8000000000000E-01 -3.4389722110221E-01 -6.6871112109390E-01
80  7.9000000000000E-01 -3.6752927201351E-01 -5.7996051597950E-01
81  8.0000000000000E-01 -3.8853311006267E-01 -4.8306230520496E-01
82  8.1000000000000E-01 -4.0692850286952E-01 -3.7853143333717E-01
83  8.2000000000000E-01 -4.2274720284600E-01 -2.6700214322602E-01
84  8.3000000000000E-01 -4.3603248373013E-01 -1.4922398499518E-01
85  8.4000000000000E-01 -4.4683860585480E-01 -2.6055784239106E-02
86  8.5000000000000E-01 -4.5523021491559E-01  1.0154238738481E-01
87  8.6000000000000E-01 -4.6128167972364E-01  2.3251915969743E-01
88  8.7000000000000E-01 -4.6507637509820E-01  3.6574361461593E-01
89  8.8000000000000E-01 -4.6670591665934E-01  5.0001869055526E-01
90  8.9000000000000E-01 -4.6626935481372E-01  6.3409605907087E-01
91  9.0000000000000E-01 -4.6387233567653E-01  7.6669226255302E-01
92  9.1000000000000E-01 -4.5962623703299E-01  8.9650587529211E-01
93  9.2000000000000E-01 -4.5364728770505E-01  1.0222354274593E+00
94  9.3000000000000E-01 -4.4605567885006E-01  1.1425978129887E+00
95  9.4000000000000E-01 -4.3697467577178E-01  1.2563468881568E+00
96  9.5000000000000E-01 -4.2652973876817E-01  1.3622919586062E+00
97  9.6000000000000E-01 -4.1484766137509E-01  1.4593158484487E+00
98  9.7000000000000E-01 -4.0205573408989E-01  1.5463922463096E+00
99  9.8000000000000E-01 -3.8828094127666E-01  1.6226020297188E+00
100  9.9000000000000E-01 -3.7364919847071E-01  1.6871482810638E+00
101  1.0000000000000E+00 -3.5828463671700E-01  1.7393697253125E+00
102  1.0100000000000E+00 -3.4230893989394E-01  1.7787523421042E+00
103  1.0200000000000E+00 -3.2584074025682E-01  1.8049389299169E+00
104  1.0300000000000E+00 -3.0899507656019E-01  1.8177364326894E+00
105  1.0400000000000E+00 -2.9188291827111E-01  1.8171208723911E+00
106  1.0500000000000E+00 -2.7461075844384E-01  1.8032397690223E+00
107  1.0600000000000E+00 -2.5728027684337E-01  1.7764119705418E+00
108  1.0700000000000E+00 -2.3998807395186E-01  1.7371248559510E+00
109  1.0800000000000E+00 -2.2282547549713E-01  1.6860289181062E+00
110  1.0900000000000E+00 -2.0587840611854E-01  1.6239297785214E+00
111  1.1000000000000E+00 -1.8922732988430E-01  1.5517777272469E+00
112  1.1100000000000E+00 -1.7294725437995E-01  1.4706549267552E+00
113  1.1200000000000E+00 -1.5710779435804E-01  1.3817604527179E+00
114  1.1300000000000E+00 -1.4177328996928E-01  1.2863933904666E+00
115  1.1400000000000E+00 -1.2700297397709E-01  1.1859342357331E+00
116  1.1500000000000E+00 -1.1285118166782E-01  1.0818248818648E+00
117  1.1600000000000E+00 -9.9367596723827E-02  9.7554749756385E-01
118  1.1700000000000E+00 -8.6597525763582E-02  8.6860262747692E-01
119  1.1800000000000E+00 -7.4582194016642E-02  7.6248686035776E-01
120  1.1900000000000E+00 -6.3359054424991E-02  6.5867041929190E-01
121  1.2000000000000E+00 -5.2962102317857E-02  5.5857503617992E-01
122  1.2100000000000E+00 -4.3422187870138E-02  4.6355247140261E-01
123  1.2200000000000E+00 -3.4767318818932E-02  3.7486402742817E-01
124  1.2300000000000E+00 -2.7022946043795E-02  2.9366139955781E-01
125  1.2400000000000E+00 -2.0212225069415E-02  2.2096918616567E-01
126  1.2500000000000E+00 -1.4356247220735E-02  1.5766934859631E-01
127  1.2600000000000E+00 -9.4756225266151E-03  1.0450358278349E-01
128  1.2700000000000E+00 -5.5850718407325E-03  6.1999592127577E-02
129  1.2800000000000E+00 -2.6842789259459E-03  3.0346529744811E-02
130  1.2900000000000E+00 -8.5873229168804E-04  1.0622029898861E-02
131  1.3000000000000E+00 -5.7535518397502E-05  2.0423892328184E-03
132  1.3100000000000E+00  7.9334321269123E-05 -9.7140133690675E-05
133  1.3200000000000E+00 -8.1731724286062E-06  3.1439284334087E-05
134  1.3300000000000E+00 -1.5772515966328E-05  7.5737524542048E-05
135  1.3400000000000E+00  3.9956429304293E-06 -1.2850207640363E-05
136  1.3500000000000E+00  3.2780275727022E-07 -1.1972828739126E-06
137  1.3600000000000E+00 -8.6174570006666E-08 -2.6215087387007E-06
138  1.3700000000000E+00  0.0000000000000E+00  0.0000000000000E+00
139  1.3800000000000E+00  0.0000000000000E+00  0.0000000000000E+00
140  1.3900000000000E+00  0.0000000000000E+00  0.0000000000000E+00
141  1.4000000000000E+00  0.0000000000000E+00  0.0000000000000E+00
142  1.4100000000000E+00  0.0000000000000E+00  0.0000000000000E+00
143  1.4200000000000E+00  0.0000000000000E+00  0.0000000000000E+00
144  1.4300000000000E+00  0.0000000000000E+00  0.0000000000000E+00
145  1.4400000000000E+00  0.0000000000000E+00  0.0000000000000E+00
146  1.4500000000000E+00  0.0000000000000E+00  0.0000000000000E+00
147  1.4600000000000E+00  0.0000000000000E+00  0.0000000000000E+00
148  1.4700000000000E+00  0.0000000000000E+00  0.0000000000000E+00
149  1.4800000000000E+00  0.0000000000000E+00  0.0000000000000E+00
150  1.4900000000000E+00  0.0000000000000E+00  0.0000000000000E+00
151  1.5000000000000E+00  0.0000000000000E+00  0.0000000000000E+00
152  1.5100000000000E+00  0.0000000000000E+00  0.0000000000000E+00
153  1.5200000000000E+00  0.0000000000000E+00  0.0000000000000E+00
154  1.5300000000000E+00  0.0000000000000E+00  0.0000000000000E+00
155  1.5400000000000E+00  0.0000000000000E+00  0.0000000000000E+00
156  1.5500000000000E+00  0.0000000000000E+00  0.0000000000000E+00
157  1.5600000000000E+00  0.0000000000000E+00  0.0000000000000E+00
158  1.5700000000000E+00  0.0000000000000E+00  0.0000000000000E+00
159  1.5800000000000E+00  0.0000000000000E+00  0.0000000000000E+00
160  1.5900000000000E+00  0.0000000000000E+00  0.0000000000000E+00
161  1.6000000000000E+00  0.0000000000000E+00  0.0000000000000E+00
162  1.6100000000000E+00  0.0000000000000E+00  0.0000000000000E+00
163  1.6200000000000E+00  0.0000000000000E+00  0.0000000000000E+00
164  1.6300000000000E+00  0.0000000000000E+00  0.0000000000000E+00
165  1.6400000000000E+00  0.0000000000000E+00  0.0000000000000E+00
166  1.6500000000000E+00  0.0000000000000E+00  0.0000000000000E+00
167  1.6600000000000E+00  0.0000000000000E+00  0.0000000000000E+00
168  1.6700000000000E+00  0.0000000000000E+00  0.0000000000000E+00
169  1.6800000000000E+00  0.0000000000000E+00  0.0000000000000E+00
170  1.6900000000000E+00  0.0000000000000E+00  0.0000000000000E+00
171  1.7000000000000E+00  0.0000000000000E+00  0.0000000000000E+00
172  1.7100000000000E+00  0.0000000000000E+00  0.0000000000000E+00
173  1.7200000000000E+00  0.0000000000000E+00  0.0000000000000E+00
174  1.7300000000000E+00  0.0000000000000E+00  0.0000000000000E+00
175  1.7400000000000E+00  0.0000000000000E+00  0.0000000000000E+00
176  1.7500000000000E+00  0.0000000000000E+00  0.0000000000000E+00
177  1.7600000000000E+00  0.0000000000000E+00  0.0000000000000E+00
178  1.7700000000000E+00  0.0000000000000E+00  0.0000000000000E+00
179  1.7800000000000E+00  0.0000000000000E+00  0.0000000000000E+00
180  1.7900000000000E+00  0.0000000000000E+00  0.0000000000000E+00
181  1.8000000000000E+00  0.0000000000000E+00  0.0000000000000E+00
182  1.8100000000000E+00  0.0000000000000E+00  0.0000000000000E+00
183  1.8200000000000E+00  0.0000000000000E+00  0.0000000000000E+00
184  1.8300000000000E+00  0.0000000000000E+00  0.0000000000000E+00
185  1.8400000000000E+00  0.0000000000000E+00  0.0000000000000E+00
186  1.8500000000000E+00  0.0000000000000E+00  0.0000000000000E+00
187  1.8600000000000E+00  0.0000000000000E+00  0.0000000000000E+00
188  1.8700000000000E+00  0.0000000000000E+00  0.0000000000000E+00
189  1.8800000000000E+00  0.0000000000000E+00  0.0000000000000E+00
190  1.8900000000000E+00  0.0000000000000E+00  0.0000000000000E+00
191  1.9000000000000E+00  0.0000000000000E+00  0.0000000000000E+00
192  1.9100000000000E+00  0.0000000000000E+00  0.0000000000000E+00
193  1.9200000000000E+00  0.0000000000000E+00  0.0000000000000E+00
194  1.9300000000000E+00  0.0000000000000E+00  0.0000000000000E+00
195  1.9400000000000E+00  0.0000000000000E+00  0.0000000000000E+00
196  1.9500000000000E+00  0.0000000000000E+00  0.0000000000000E+00
197  1.9600000000000E+00  0.0000000000000E+00  0.0000000000000E+00
198  1.9700000000000E+00  0.0000000000000E+00  0.0000000000000E+00
199  1.9800000000000E+00  0.0000000000000E+00  0.0000000000000E+00
200  1.9900000000000E+00  0.0000000000000E+00  0.0000000000000E+00
201  2.0000000000000E+00  0.0000000000000E+00  0.0000000000000E+00
202  2.0100000000000E+00  0.0000000000000E+00  0.0000000000000E+00
203  2.0200000000000E+00  0.0000000000000E+00  0.0000000000000E+00
204  2.0300000000000E+00  0.0000000000000E+00  0.0000000000000E+00
205  2.0400000000000E+00  0.0000000000000E+00  0.0000000000000E+00
206  2.0500000000000E+00  0.0000000000000E+00  0.0000000000000E+00
207  2.0600000000000E+00  0.0000000000000E+00  0.0000000000000E+00
208  2.0700000000000E+00  0.0000000000000E+00  0.0000000000000E+00
209  2.0800000000000E+00  0.0000000000000E+00  0.0000000000000E+00
210  2.0900000000000E+00  0.0000000000000E+00  0.0000000000000E+00
211  2.1000000000000E+00  0.0000000000000E+00  0.0000000000000E+00
212  2.1100000000000E+00  0.0000000000000E+00  0.0000000000000E+00
213  2.1200000000000E+00  0.0000000000000E+00  0.0000000000000E+00
214  2.1300000000000E+00  0.0000000000000E+00  0.0000000000000E+00
215  2.1400000000000E+00  0.0000000000000E+00  0.0000000000000E+00
216  2.1500000000000E+00  0.0000000000000E+00  0.0000000000000E+00
217  2.1600000000000E+00  0.0000000000000E+00  0.0000000000000E+00
218  2.1700000000000E+00  0.0000000000000E+00  0.0000000000000E+00
219  2.1800000000000E+00  0.0000000000000E+00  0.0000000000000E+00
220  2.1900000000000E+00  0.0000000000000E+00  0.0000000000000E+00
221  2.2000000000000E+00  0.0000000000000E+00  0.0000000000000E+00
222  2.2100000000000E+00  0.0000000000000E+00  0.0000000000000E+00
223  2.2200000000000E+00  0.0000000000000E+00  0.0000000000000E+00
224  2.2300000000000E+00  0.0000000000000E+00  0.0000000000000E+00
225  2.2400000000000E+00  0.0000000000000E+00  0.0000000000000E+00
226  2.2500000000000E+00  0.0000000000000E+00  0.0000000000000E+00
227  2.2600000000000E+00  0.0000000000000E+00  0.0000000000000E+00
228  2.2700000000000E+00  0.0000000000000E+00  0.0000000000000E+00
229  2.2800000000000E+00  0.0000000000000E+00  0.0000000000000E+00
230  2.2900000000000E+00  0.0000000000000E+00  0.0000000000000E+00
231  2.3000000000000E+00  0.0000000000000E+00  0.0000000000000E+00
232  2.3100000000000E+00  0.0000000000000E+00  0.0000000000000E+00
233  2.3200000000000E+00  0.0000000000000E+00  0.0000000000000E+00
234  2.3300000000000E+00  0.0000000000000E+00  0.0000000000000E+00
235  2.3400000000000E+00  0.0000000000000E+00  0.0000000000000E+00
236  2.3500000000000E+00  0.0000000000000E+00  0.0000000000000E+00
237  2.3600000000000E+00  0.0000000000000E+00  0.0000000000000E+00
238  2.3700000000000E+00  0.0000000000000E+00  0.0000000000000E+00
239  2.3800000000000E+00  0.0000000000000E+00  0.0000000000000E+00
240  2.3900000000000E+00  0.0000000000000E+00  0.0000000000000E+00
241  2.4000000000000E+00  0.0000000000000E+00  0.0000000000000E+00
242  2.4100000000000E+00  0.0000000000000E+00  0.0000000000000E+00
243  2.4200000000000E+00  0.0000000000000E+00  0.0000000000000E+00
244  2.4300000000000E+00  0.0000000000000E+00  0.0000000000000E+00
245  2.4400000000000E+00  0.0000000000000E+00  0.0000000000000E+00
246  2.4500000000000E+00  0.0000000000000E+00  0.0000000000000E+00
247  2.4600000000000E+00  0.0000000000000E+00  0.0000000000000E+00
248  2.4700000000000E+00  0.0000000000000E+00  0.0000000000000E+00
249  2.4800000000000E+00  0.0000000000000E+00  0.0000000000000E+00
250  2.4900000000000E+00  0.0000000000000E+00  0.0000000000000E+00
251  2.5000000000000E+00  0.0000000000000E+00  0.0000000000000E+00
252  2.5100000000000E+00  0.0000000000000E+00  0.0000000000000E+00
253  2.5200000000000E+00  0.0000000000000E+00  0.0000000000000E+00
254  2.5300000000000E+00  0.0000000000000E+00  0.0000000000000E+00
255  2.5400000000000E+00  0.0000000000000E+00  0.0000000000000E+00
256  2.5500000000000E+00  0.0000000000000E+00  0.0000000000000E+00
257  2.5600000000000E+00  0.0000000000000E+00  0.0000000000000E+00
258  2.5700000000000E+00  0.0000000000000E+00  0.0000000000000E+00
259  2.5800000000000E+00  0.0000000000000E+00  0.0000000000000E+00
260  2.5900000000000E+00  0.0000000000000E+00  0.0000000000000E+00
261  2.6000000000000E+00  0.0000000000000E+00  0.0000000000000E+00
262  2.6100000000000E+00  0.0000000000000E+00  0.0000000000000E+00
263  2.6200000000000E+00  0.0000000000000E+00  0.0000000000000E+00
264  2.6300000000000E+00  0.0000000000000E+00  0.0000000000000E+00
265  2.6400000000000E+00  0.0000000000000E+00  0.0000000000000E+00
266  2.6500000000000E+00  0.0000000000000E+00  0.0000000000000E+00
267  2.6600000000000E+00  0.0000000000000E+00  0.0000000000000E+00
268  2.6700000000000E+00  0.0000000000000E+00  0.0000000000000E+00
269  2.6800000000000E+00  0.0000000000000E+00  0.0000000000000E+00
270  2.6900000000000E+00  0.0000000000000E+00  0.0000000000000E+00
271  2.7000000000000E+00  0.0000000000000E+00  0.0000000000000E+00
272  2.7100000000000E+00  0.0000000000000E+00  0.0000000000000E+00
273  2.7200000000000E+00  0.0000000000000E+00  0.0000000000000E+00
274  2.7300000000000E+00  0.0000000000000E+00  0.0000000000000E+00
275  2.7400000000000E+00  0.0000000000000E+00  0.0000000000000E+00
276  2.7500000000000E+00  0.0000000000000E+00  0.0000000000000E+00
277  2.7600000000000E+00  0.0000000000000E+00  0.0000000000000E+00
278  2.7700000000000E+00  0.0000000000000E+00  0.0000000000000E+00
279  2.7800000000000E+00  0.0000000000000E+00  0.0000000000000E+00
280  2.7900000000000E+00  0.0000000000000E+00  0.0000000000000E+00
281  2.8000000000000E+00  0.0000000000000E+00  0.0000000000000E+00
282  2.8100000000000E+00  0.0000000000000E+00  0.0000000000000E+00
283  2.8200000000000E+00  0.0000000000000E+00  0.0000000000000E+00
284  2.8300000000000E+00  0.0000000000000E+00  0.0000000000000E+00
285  2.8400000000000E+00  0.0000000000000E+00  0.0000000000000E+00
286  2.8500000000000E+00  0.0000000000000E+00  0.0000000000000E+00
287  2.8600000000000E+00  0.0000000000000E+00  0.0000000000000E+00
288  2.8700000000000E+00  0.0000000000000E+00  0.0000000000000E+00
289  2.8800000000000E+00  0.0000000000000E+00  0.0000000000000E+00
290  2.8900000000000E+00  0.0000000000000E+00  0.0000000000000E+00
291  2.9000000000000E+00  0.0000000000000E+00  0.0000000000000E+00
292  2.9100000000000E+00  0.0000000000000E+00  0.0000000000000E+00
293  2.9200000000000E+00  0.0000000000000E+00  0.0000000000000E+00
294  2.9300000000000E+00  0.0000000000000E+00  0.0000000000000E+00
295  2.9400000000000E+00  0.0000000000000E+00  0.0000000000000E+00
296  2.9500000000000E+00  0.0000000000000E+00  0.0000000000000E+00
297  2.9600000000000E+00  0.0000000000000E+00  0.0000000000000E+00
298  2.9700000000000E+00  0.0000000000000E+00  0.0000000000000E+00
299  2.9800000000000E+00  0.0000000000000E+00  0.0000000000000E+00
300  2.9900000000000E+00  0.0000000000000E+00  0.0000000000000E+00
301  3.0000000000000E+00  0.0000000000000E+00  0.0000000000000E+00
302  3.0100000000000E+00  0.0000000000000E+00  0.0000000000000E+00
303  3.0200000000000E+00  0.0000000000000E+00  0.0000000000000E+00
304  3.0300000000000E+00  0.0000000000000E+00  0.0000000000000E+00
305  3.0400000000000E+00  0.0000000000000E+00  0.0000000000000E+00
306  3.0500000000000E+00  0.0000000000000E+00  0.0000000000000E+00
307  3.0600000000000E+00  0.0000000000000E+00  0.0000000000000E+00
308  3.0700000000000E+00  0.0000000000000E+00  0.0000000000000E+00
309  3.0800000000000E+00  0.0000000000000E+00  0.0000000000000E+00
310  3.0900000000000E+00  0.0000000000000E+00  0.0000000000000E+00
311  3.1000000000000E+00  0.0000000000000E+00  0.0000000000000E+00
312  3.1100000000000E+00  0.0000000000000E+00  0.0000000000000E+00
313  3.1200000000000E+00  0.0000000000000E+00  0.0000000000000E+00
314  3.1300000000000E+00  0.0000000000000E+00  0.0000000000000E+00
315  3.1400000000000E+00  0.0000000000000E+00  0.0000000000000E+00
316  3.1500000000000E+00  0.0000000000000E+00  0.0000000000000E+00
317  3.1600000000000E+00  0.0000000000000E+00  0.0000000000000E+00
318  3.1700000000000E+00  0.0000000000000E+00  0.0000000000000E+00
319  3.1800000000000E+00  0.0000000000000E+00  0.0000000000000E+00
320  3.1900000000000E+00  0.0000000000000E+00  0.0000000000000E+00
321  3.2000000000000E+00  0.0000000000000E+00  0.0000000000000E+00
322  3.2100000000000E+00  0.0000000000000E+00  0.0000000000000E+00
323  3.2200000000000E+00  0.0000000000000E+00  0.0000000000000E+00
324  3.2300000000000E+00  0.0000000000000E+00  0.0000000000000E+00
325  3.2400000000000E+00  0.0000000000000E+00  0.0000000000000E+00
326  3.2500000000000E+00  0.0000000000000E+00  0.0000000000000E+00
327  3.2600000000000E+00  0.0000000000000E+00  0.0000000000000E+00
328  3.2700000000000E+00  0.0000000000000E+00  0.0000000000000E+00
329  3.2800000000000E+00  0.0000000000000E+00  0.0000000000000E+00
330  3.2900000000000E+00  0.0000000000000E+00  0.0000000000000E+00
331  3.3000000000000E+00  0.0000000000000E+00  0.0000000000000E+00
332  3.3100000000000E+00  0.0000000000000E+00  0.0000000000000E+00
333  3.3200000000000E+00  0.0000000000000E+00  0.0000000000000E+00
334  3.3300000000000E+00  0.0000000000000E+00  0.0000000000000E+00
335  3.3400000000000E+00  0.0000000000000E+00  0.0000000000000E+00
336  3.3500000000000E+00  0.0000000000000E+00  0.0000000000000E+00
337  3.3600000000000E+00  0.0000000000000E+00  0.0000000000000E+00
338  3.3700000000000E+00  0.0000000000000E+00  0.0000000000000E+00
339  3.3800000000000E+00  0.0000000000000E+00  0.0000000000000E+00
340  3.3900000000000E+00  0.0000000000000E+00  0.0000000000000E+00
341  3.4000000000000E+00  0.0000000000000E+00  0.0000000000000E+00
342  3.4100000000000E+00  0.0000000000000E+00  0.0000000000000E+00
343  3.4200000000000E+00  0.0000000000000E+00  0.0000000000000E+00
344  3.4300000000000E+00  0.0000000000000E+00  0.0000000000000E+00
345  3.4400000000000E+00  0.0000000000000E+00  0.0000000000000E+00
346  3.4500000000000E+00  0.0000000000000E+00  0.0000000000000E+00
347  3.4600000000000E+00  0.0000000000000E+00  0.0000000000000E+00
348  3.4700000000000E+00  0.0000000000000E+00  0.0000000000000E+00
349  3.4800000000000E+00  0.0000000000000E+00  0.0000000000000E+00
350  3.4900000000000E+00  0.0000000000000E+00  0.0000000000000E+00
351  3.5000000000000E+00  0.0000000000000E+00  0.0000000000000E+00
352  3.5100000000000E+00  0.0000000000000E+00  0.0000000000000E+00
353  3.5200000000000E+00  0.0000000000000E+00  0.0000000000000E+00
354  3.5300000000000E+00  0.0000000000000E+00  0.0000000000000E+00
355  3.5400000000000E+00  0.0000000000000E+00  0.0000000000000E+00
356  3.5500000000000E+00  0.0000000000000E+00  0.0000000000000E+00
357  3.5600000000000E+00  0.0000000000000E+00  0.0000000000000E+00
358  3.5700000000000E+00  0.0000000000000E+00  0.0000000000000E+00
359  3.5800000000000E+00  0.0000000000000E+00  0.0000000000000E+00
360  3.5900000000000E+00  0.0000000000000E+00  0.0000000000000E+00
361  3.6000000000000E+00  0.0000000000000E+00  0.0000000000000E+00
362  3.6100000000000E+00  0.0000000000000E+00  0.0000000000000E+00
363  3.6200000000000E+00  0.0000000000000E+00  0.0000000000000E+00
364  3.6300000000000E+00  0.0000000000000E+00  0.0000000000000E+00
365  3.6400000000000E+00  0.0000000000000E+00  0.0000000000000E+00
366  3.6500000000000E+00  0.0000000000000E+00  0.0000000000000E+00
367  3.6600000000000E+00  0.0000000000000E+00  0.0000000000000E+00
368  3.6700000000000E+00  0.0000000000000E+00  0.0000000000000E+00
369  3.6800000000000E+00  0.0000000000000E+00  0.0000000000000E+00
370  3.6900000000000E+00  0.0000000000000E+00  0.0000000000000E+00
371  3.7000000000000E+00  0.0000000000000E+00  0.0000000000000E+00
372  3.7100000000000E+00  0.0000000000000E+00  0.0000000000000E+00
373  3.7200000000000E+00  0.0000000000000E+00  0.0000000000000E+00
374  3.7300000000000E+00  0.0000000000000E+00  0.0000000000000E+00
375  3.7400000000000E+00  0.0000000000000E+00  0.0000000000000E+00
376  3.7500000000000E+00  0.0000000000000E+00  0.0000000000000E+00
377  3.7600000000000E+00  0.0000000000000E+00  0.0000000000000E+00
378  3.7700000000000E+00  0.0000000000000E+00  0.0000000000000E+00
379  3.7800000000000E+00  0.0000000000000E+00  0.0000000000000E+00
380  3.7900000000000E+00  0.0000000000000E+00  0.0000000000000E+00
381  3.8000000000000E+00  0.0000000000000E+00  0.0000000000000E+00
382  3.8100000000000E+00  0.0000000000000E+00  0.0000000000000E+00
383  3.8200000000000E+00  0.0000000000000E+00  0.0000000000000E+00
384  3.8300000000000E+00  0.0000000000000E+00  0.0000000000000E+00
385  3.8400000000000E+00  0.0000000000000E+00  0.0000000000000E+00
386  3.8500000000000E+00  0.0000000000000E+00  0.0000000000000E+00
387  3.8600000000000E+00  0.0000000000000E+00  0.0000000000000E+00
388  3.8700000000000E+00  0.0000000000000E+00  0.0000000000000E+00
389  3.8800000000000E+00  0.0000000000000E+00  0.0000000000000E+00
390  3.8900000000000E+00  0.0000000000000E+00  0.0000000000000E+00
391  3.9000000000000E+00  0.0000000000000E+00  0.0000000000000E+00
392  3.9100000000000E+00  0.0000000000000E+00  0.0000000000000E+00
393  3.9200000000000E+00  0.0000000000000E+00  0.0000000000000E+00
394  3.9300000000000E+00  0.0000000000000E+00  0.0000000000000E+00
395  3.9400000000000E+00  0.0000000000000E+00  0.0000000000000E+00
396  3.9500000000000E+00  0.0000000000000E+00  0.0000000000000E+00
397  3.9600000000000E+00  0.0000000000000E+00  0.0000000000000E+00
398  3.9700000000000E+00  0.0000000000000E+00  0.0000000000000E+00
399  3.9800000000000E+00  0.0000000000000E+00  0.0000000000000E+00
400  3.9900000000000E+00  0.0000000000000E+00  0.0000000000000E+00
401  4.0000000000000E+00  0.0000000000000E+00  0.0000000000000E+00
402  4.0100000000000E+00  0.0000000000000E+00  0.0000000000000E+00
403  4.0200000000000E+00  0.0000000000000E+00  0.0000000000000E+00
404  4.0300000000000E+00  0.0000000000000E+00  0.0000000000000E+00
405  4.0400000000000E+00  0.0000000000000E+00  0.0000000000000E+00
406  4.0500000000000E+00  0.0000000000000E+00  0.0000000000000E+00
407  4.0600000000000E+00  0.0000000000000E+00  0.0000000000000E+00
408  4.0700000000000E+00  0.0000000000000E+00  0.0000000000000E+00
409  4.0800000000000E+00  0.0000000000000E+00  0.0000000000000E+00
410  4.0900000000000E+00  0.0000000000000E+00  0.0000000000000E+00
411  4.1000000000000E+00  0.0000000000000E+00  0.0000000000000E+00
412  4.1100000000000E+00  0.0000000000000E+00  0.0000000000000E+00
413  4.1200000000000E+00  0.0000000000000E+00  0.0000000000000E+00
414  4.1300000000000E+00  0.0000000000000E+00  0.0000000000000E+00
415  4.1400000000000E+00  0.0000000000000E+00  0.0000000000000E+00
416  4.1500000000000E+00  0.0000000000000E+00  0.0000000000000E+00
417  4.1600000000000E+00  0.0000000000000E+00  0.0000000000000E+00
418  4.1700000000000E+00  0.0000000000000E+00  0.0000000000000E+00
419  4.1800000000000E+00  0.0000000000000E+00  0.0000000000000E+00
420  4.1900000000000E+00  0.0000000000000E+00  0.0000000000000E+00
421  4.2000000000000E+00  0.0000000000000E+00  0.0000000000000E+00
422  4.2100000000000E+00  0.0000000000000E+00  0.0000000000000E+00
423  4.2200000000000E+00  0.0000000000000E+00  0.0000000000000E+00
424  4.2300000000000E+00  0.0000000000000E+00  0.0000000000000E+00
425  4.2400000000000E+00  0.0000000000000E+00  0.0000000000000E+00
426  4.2500000000000E+00  0.0000000000000E+00  0.0000000000000E+00
427  4.2600000000000E+00  0.0000000000000E+00  0.0000000000000E+00
428  4.2700000000000E+00  0.0000000000000E+00  0.0000000000000E+00
429  4.2800000000000E+00  0.0000000000000E+00  0.0000000000000E+00
430  4.2900000000000E+00  0.0000000000000E+00  0.0000000000000E+00
431  4.3000000000000E+00  0.0000000000000E+00  0.0000000000000E+00
432  4.3100000000000E+00  0.0000000000000E+00  0.0000000000000E+00
433  4.3200000000000E+00  0.0000000000000E+00  0.0000000000000E+00
434  4.3300000000000E+00  0.0000000000000E+00  0.0000000000000E+00
435  4.3400000000000E+00  0.0000000000000E+00  0.0000000000000E+00
436  4.3500000000000E+00  0.0000000000000E+00  0.0000000000000E+00
437  4.3600000000000E+00  0.0000000000000E+00  0.0000000000000E+00
438  4.3700000000000E+00  0.0000000000000E+00  0.0000000000000E+00
439  4.3800000000000E+00  0.0000000000000E+00  0.0000000000000E+00
440  4.3900000000000E+00  0.0000000000000E+00  0.0000000000000E+00
441  4.4000000000000E+00  0.0000000000000E+00  0.0000000000000E+00
442  4.4100000000000E+00  0.0000000000000E+00  0.0000000000000E+00
443  4.4200000000000E+00  0.0000000000000E+00  0.0000000000000E+00