Cs    ONCVPSP-3.2.3.1  r_core=   2.27353   1.85623   2.01788   1.90105
55.0000      9.0000      170703    zatom,zion,pspd
8      11   3     4   600     0    pspcod,pspxc,lmax,lloc,mmax,r2well
5.99000000  5.00000000  0.00000000    rchrg fchrg qchrg
2     2     2     2     0    nproj
1     1           extension_switch
0                         6.1761037321368E+00  7.5633431748855E-01
1  0.0000000000000E+00  3.5021707756044E-12 -8.7532090950471E-12
2  1.0000000000000E-02  2.2819869625345E-02  1.0192269157870E-03
3  2.0000000000000E-02  4.5646253174069E-02  2.0034025802274E-03
4  3.0000000000000E-02  6.8485589585072E-02  2.9176628785658E-03
5  4.0000000000000E-02  9.1344168112906E-02  3.7275172629651E-03
6  5.0000000000000E-02  1.1422805419626E-01  4.3990337725120E-03
7  6.0000000000000E-02  1.3714301617679E-01  4.8990219432326E-03
8  7.0000000000000E-02  1.6009445314753E-01  5.1952129150335E-03
9  8.0000000000000E-02  1.8308732420694E-01  5.2564360512399E-03
10  9.0000000000000E-02  2.0612607938971E-01  5.0527913973131E-03
11  1.0000000000000E-01  2.2921459254097E-01  4.5558173183279E-03
12  1.1000000000000E-01  2.5235609639371E-01  3.7386526699918E-03
13  1.2000000000000E-01  2.7555312010300E-01  2.5761928751082E-03
14  1.3000000000000E-01  2.9880742948253E-01  1.0452392966809E-03
15  1.4000000000000E-01  3.2211997018061E-01 -8.7535868002063E-04
16  1.5000000000000E-01  3.4549081402358E-01 -3.2045694208349E-03
17  1.6000000000000E-01  3.6891910874459E-01 -5.9590532111139E-03
18  1.7000000000000E-01  3.9240303130490E-01 -9.1530453316578E-03
19  1.8000000000000E-01  4.1593974500367E-01 -1.2798248526267E-02
20  1.9000000000000E-01  4.3952536055988E-01 -1.6903735314670E-02
21  2.0000000000000E-01  4.6315490133760E-01 -2.1475860572557E-02
22  2.1000000000000E-01  4.8682227287238E-01 -2.6518184767175E-02
23  2.2000000000000E-01  5.1052023684267E-01 -3.2031408201987E-02
24  2.3000000000000E-01  5.3424038961593E-01 -3.8013316587467E-02
25  2.4000000000000E-01  5.5797314548409E-01 -4.4458738217932E-02
26  2.5000000000000E-01  5.8170772468777E-01 -5.1359512995159E-02
27  2.6000000000000E-01  6.0543214631289E-01 -5.8704473500120E-02
28  2.7000000000000E-01  6.2913322612733E-01 -6.6479438273246E-02
29  2.8000000000000E-01  6.5279657940869E-01 -7.4667217422003E-02
30  2.9000000000000E-01  6.7640662879768E-01 -8.3247630632393E-02
31  3.0000000000000E-01  6.9994661719476E-01 -9.2197537617837E-02
32  3.1000000000000E-01  7.2339862570037E-01 -1.0149088099563E-01
33  3.2000000000000E-01  7.4674359658223E-01 -1.1109874153730E-01
34  3.3000000000000E-01  7.6996136123548E-01 -1.2098940569504E-01
35  3.4000000000000E-01  7.9303067308455E-01 -1.3112844526257E-01
36  3.5000000000000E-01  8.1592924535793E-01 -1.4147880898420E-01
37  3.6000000000000E-01  8.3863379365030E-01 -1.5200092588259E-01
38  3.7000000000000E-01  8.6112008316908E-01 -1.6265282003151E-01
39  3.8000000000000E-01  8.8336298054560E-01 -1.7339023645714E-01
40  3.9000000000000E-01  9.0533651007487E-01 -1.8416677780891E-01
41  4.0000000000000E-01  9.2701391423107E-01 -1.9493405139909E-01
42  4.1000000000000E-01  9.4836771829046E-01 -2.0564182616941E-01
43  4.2000000000000E-01  9.6936979887751E-01 -2.1623819910352E-01
44  4.3000000000000E-01  9.8999145623532E-01 -2.2666977056518E-01
45  4.4000000000000E-01  1.0102034900065E+00 -2.3688182800513E-01
46  4.5000000000000E-01  1.0299762782970E+00 -2.4681853744374E-01
47  4.6000000000000E-01  1.0492798597826E+00 -2.5642314210255E-01
48  4.7000000000000E-01  1.0680840186031E+00 -2.6563816752538E-01
49  4.8000000000000E-01  1.0863583717804E+00 -2.7440563249955E-01
50  4.9000000000000E-01  1.1040724588834E+00 -2.8266726505926E-01
51  5.0000000000000E-01  1.1211958336518E+00 -2.9036472282694E-01
52  5.1000000000000E-01  1.1376981572848E+00 -2.9743981692514E-01
53  5.2000000000000E-01  1.1535492930878E+00 -3.0383473866914E-01
54  5.3000000000000E-01  1.1687194021654E+00 -3.0949228823263E-01
55  5.4000000000000E-01  1.1831790398431E+00 -3.1435610446210E-01
56  5.5000000000000E-01  1.1968992524914E+00 -3.1837089500185E-01
57  5.6000000000000E-01  1.2098516744243E+00 -3.2148266588171E-01
58  5.7000000000000E-01  1.2220086245404E+00 -3.2363894971110E-01
59  5.8000000000000E-01  1.2333432023708E+00 -3.2478903161867E-01
60  5.9000000000000E-01  1.2438293831990E+00 -3.2488417207528E-01
61  6.0000000000000E-01  1.2534421119170E+00 -3.2387782573910E-01
62  6.1000000000000E-01  1.2621573952823E+00 -3.2172585546670E-01
63  6.2000000000000E-01  1.2699523922446E+00 -3.1838674064159E-01
64  6.3000000000000E-01  1.2768055020120E+00 -3.1382177898246E-01
65  6.4000000000000E-01  1.2826964495347E+00 -3.0799528100822E-01
66  6.5000000000000E-01  1.2876063680857E+00 -3.0087475635366E-01
67  6.6000000000000E-01  1.2915178786294E+00 -2.9243109115075E-01
68  6.7000000000000E-01  1.2944151656734E+00 -2.8263871571421E-01
69  6.8000000000000E-01  1.2962840493116E+00 -2.7147576179671E-01
70  6.9000000000000E-01  1.2971120531745E+00 -2.5892420870961E-01
71  7.0000000000000E-01  1.2968884680148E+00 -2.4497001763762E-01
72  7.1000000000000E-01  1.2956044106709E+00 -2.2960325351205E-01
73  7.2000000000000E-01  1.2932528781616E+00 -2.1281819384595E-01
74  7.3000000000000E-01  1.2898287966830E+00 -1.9461342397618E-01
75  7.4000000000000E-01  1.2853290652908E+00 -1.7499191820110E-01
76  7.5000000000000E-01  1.2797525940724E+00 -1.5396110634979E-01
77  7.6000000000000E-01  1.2731003366254E+00 -1.3153292536709E-01
78  7.7000000000000E-01  1.2653753166817E+00 -1.0772385555030E-01
79  7.8000000000000E-01  1.2565826487327E+00 -8.2554941126000E-02
80  7.9000000000000E-01  1.2467295525324E+00 -5.6051794911044E-02
81  8.0000000000000E-01  1.2358253613741E+00 -2.8244586857546E-02
82  8.1000000000000E-01  1.2238815240577E+00  8.3198365932261E-04
83  8.2000000000000E-01  1.2109116004881E+00  3.1138731893595E-02
84  8.3000000000000E-01  1.1969312508617E+00  6.2632048142710E-02
85  8.4000000000000E-01  1.1819582184270E+00  9.5263974484805E-02
86  8.5000000000000E-01  1.1660123058208E+00  1.2898229773863E-01
87  8.6000000000000E-01  1.1491153450093E+00  1.6373065848336E-01
88  8.7000000000000E-01  1.1312911608827E+00  1.9944867591395E-01
89  8.8000000000000E-01  1.1125655285761E+00  2.3607208824528E-01
90  8.9000000000000E-01  1.0929661246108E+00  2.7353290831745E-01
91  9.0000000000000E-01  1.0725224719737E+00  3.1175959399334E-01
92  9.1000000000000E-01  1.0512658792736E+00  3.5067723287967E-01
93  9.2000000000000E-01  1.0292293741349E+00  3.9020774084443E-01
94  9.3000000000000E-01  1.0064476310107E+00  4.3027007374576E-01
95  9.4000000000000E-01  9.8295689361919E-01  4.7078045173204E-01
96  9.5000000000000E-01  9.5879489222384E-01  5.1165259541920E-01
97  9.6000000000000E-01  9.3400075600234E-01  5.5279797319923E-01
98  9.7000000000000E-01  9.0861492076332E-01  5.9412605888577E-01
99  9.8000000000000E-01  8.8267903229080E-01  6.3554459885444E-01
100  9.9000000000000E-01  8.5623584561159E-01  6.7695988779339E-01
101  1.0000000000000E+00  8.2932912049760E-01  7.1827705213784E-01
102  1.0100000000000E+00  8.0200351352942E-01  7.5940034022521E-01
103  1.0200000000000E+00  7.7430446706161E-01  8.0023341817369E-01
104  1.0300000000000E+00  7.4627809544248E-01  8.4067967045562E-01
105  1.0400000000000E+00  7.1797106885224E-01  8.8064250411244E-01
106  1.0500000000000E+00  6.8943049513401E-01  9.2002565553258E-01
107  1.0600000000000E+00  6.6070380000022E-01  9.5873349869685E-01
108  1.0700000000000E+00  6.3183860600447E-01  9.9667135378058E-01
109  1.0800000000000E+00  6.0288261067477E-01  1.0337457949918E+00
110  1.0900000000000E+00  5.7388346420818E-01  1.0698649565183E+00
111  1.1000000000000E+00  5.4488864713014E-01  1.1049388354560E+00
112  1.1100000000000E+00  5.1594534832312E-01  1.1388795905912E+00
113  1.1200000000000E+00  4.8710034382855E-01  1.1716018359210E+00
114  1.1300000000000E+00  4.5839987682498E-01  1.2030229278051E+00
115  1.1400000000000E+00  4.2988953918215E-01  1.2330632446571E+00
116  1.1500000000000E+00  4.0161415498575E-01  1.2616464581084E+00
117  1.1600000000000E+00  3.7361766642100E-01  1.2886997946013E+00
118  1.1700000000000E+00  3.4594302239641E-01  1.3141542863956E+00
119  1.1800000000000E+00  3.1863207028009E-01  1.3379450110072E+00
120  1.1900000000000E+00  2.9172545110931E-01  1.3600113181363E+00
121  1.2000000000000E+00  2.6526249862044E-01  1.3802970431920E+00
122  1.2100000000000E+00  2.3928114244000E-01  1.3987507065426E+00
123  1.2200000000000E+00  2.1381781575460E-01  1.4153256976966E+00
124  1.2300000000000E+00  1.8890736776422E-01  1.4299804436649E+00
125  1.2400000000000E+00  1.6458298121042E-01  1.4426785607969E+00
126  1.2500000000000E+00  1.4087609524983E-01  1.4533889894528E+00
127  1.2600000000000E+00  1.1781633391960E-01  1.4620861109503E+00
128  1.2700000000000E+00  9.5431440429036E-02  1.4687498462635E+00
129  1.2800000000000E+00  7.3747217491196E-02  1.4733657360184E+00
130  1.2900000000000E+00  5.2787473872918E-02  1.4759250014392E+00
131  1.3000000000000E+00  3.2573977335683E-02  1.4764245859192E+00
132  1.3100000000000E+00  1.3126414114033E-02  1.4748671769715E+00
133  1.3200000000000E+00 -5.5376449643212E-03  1.4712612084440E+00
134  1.3300000000000E+00 -2.3402771606913E-02  1.4656208428677E+00
135  1.3400000000000E+00 -4.0455700364872E-02  1.4579659339340E+00
136  1.3500000000000E+00 -5.6685342093189E-02  1.4483219692180E+00
137  1.3600000000000E+00 -7.2082790511475E-02  1.4367199931948E+00
138  1.3700000000000E+00 -8.6641321892160E-02  1.4231965108340E+00
139  1.3800000000000E+00 -1.0035638790486E-01  1.4077933720578E+00
140  1.3900000000000E+00 -1.1322560164190E-01  1.3905576373416E+00
141  1.4000000000000E+00 -1.2524871694209E-01  1.3715414250056E+00
142  1.4100000000000E+00 -1.3642760107813E-01  1.3508017405931E+00
143  1.4200000000000E+00 -1.4676620094298E-01  1.3284002889382E+00
144  1.4300000000000E+00 -1.5627050289936E-01  1.3044032696030E+00
145  1.4400000000000E+00 -1.6494848641428E-01  1.2788811562488E+00
146  1.4500000000000E+00 -1.7281007172355E-01  1.2519084608501E+00
147  1.4600000000000E+00 -1.7986706168535E-01  1.2235634834201E+00
148  1.4700000000000E+00 -1.8613307807856E-01  1.1939280481865E+00
149  1.4800000000000E+00 -1.9162349259024E-01  1.1630872271158E+00
150  1.4900000000000E+00 -1.9635535272774E-01  1.1311290516754E+00
151  1.5000000000000E+00 -2.0034730298285E-01  1.0981442139444E+00
152  1.5100000000000E+00 -2.0361950147755E-01  1.0642257579497E+00
153  1.5200000000000E+00 -2.0619353245816E-01  1.0294687624349E+00
154  1.5300000000000E+00 -2.0809231490559E-01  9.9397001603105E-01
155  1.5400000000000E+00 -2.0934000762054E-01  9.5782768601429E-01
156  1.5500000000000E+00 -2.0996191110236E-01  9.2114098172957E-01
157  1.5600000000000E+00 -2.0998436656968E-01  8.8400981384605E-01
158  1.5700000000000E+00 -2.0943465247218E-01  8.4653445056186E-01
159  1.5800000000000E+00 -2.0834087884258E-01  8.0881517194402E-01
160  1.5900000000000E+00 -2.0673187984355E-01  7.7095192347735E-01
161  1.6000000000000E+00 -2.0463710487249E-01  7.3304397006755E-01
162  1.6100000000000E+00 -2.0208650855999E-01  6.9518955145932E-01
163  1.6200000000000E+00 -1.9911044004614E-01  6.5748554038102E-01
164  1.6300000000000E+00 -1.9573953183893E-01  6.2002710424586E-01
165  1.6400000000000E+00 -1.9200458865254E-01  5.8290737173964E-01
166  1.6500000000000E+00 -1.8793647649780E-01  5.4621710501200E-01
167  1.6600000000000E+00 -1.8356601242422E-01  5.1004437877251E-01
168  1.6700000000000E+00 -1.7892385515236E-01  4.7447426689168E-01
169  1.6800000000000E+00 -1.7404039698990E-01  4.3958853775947E-01
170  1.6900000000000E+00 -1.6894565723029E-01  4.0546535886016E-01
171  1.7000000000000E+00 -1.6366917742044E-01  3.7217901177052E-01
172  1.7100000000000E+00 -1.5823991864343E-01  3.3979961785281E-01
173  1.7200000000000E+00 -1.5268616120290E-01  3.0839287583402E-01
174  1.7300000000000E+00 -1.4703540678213E-01  2.7801981128581E-01
175  1.7400000000000E+00 -1.4131428348043E-01  2.4873653923946E-01
176  1.7500000000000E+00 -1.3554845369923E-01  2.2059403960005E-01
177  1.7600000000000E+00 -1.2976252532082E-01  1.9363794672178E-01
178  1.7700000000000E+00 -1.2397996601758E-01  1.6790835234762E-01
179  1.7800000000000E+00 -1.1822302120578E-01  1.4343962350486E-01
180  1.7900000000000E+00 -1.1251263531343E-01  1.2026023399395E-01
181  1.8000000000000E+00 -1.0686837570700E-01  9.8392605503334E-02
182  1.8100000000000E+00 -1.0130836701937E-01  7.7852994707481E-02
183  1.8200000000000E+00 -9.5849205898561E-02  5.8651287970099E-02
184  1.8300000000000E+00 -9.0505939221741E-02  4.0791078057917E-02
185  1.8400000000000E+00 -8.5291977181462E-02  2.4269455401570E-02
186  1.8500000000000E+00 -8.0218959557595E-02  9.0765566840644E-03
187  1.8600000000000E+00 -7.5296804753302E-02 -4.8040333005930E-03
188  1.8700000000000E+00 -7.0533851692081E-02 -1.7394433137303E-02
189  1.8800000000000E+00 -6.5936975324685E-02 -2.8721794035037E-02
190  1.8900000000000E+00 -6.1511754642891E-02 -3.8817488747899E-02
191  1.9000000000000E+00 -5.7262699868163E-02 -4.7716009943244E-02
192  1.9100000000000E+00 -5.3193200254123E-02 -5.5455200017812E-02
193  1.9200000000000E+00 -4.9305535832119E-02 -6.2076223839940E-02
194  1.9300000000000E+00 -4.5600962885310E-02 -6.7623157409474E-02
195  1.9400000000000E+00 -4.2079755473809E-02 -7.2142807424777E-02
196  1.9500000000000E+00 -3.8741258624688E-02 -7.5684479755263E-02
197  1.9600000000000E+00 -3.5583947674598E-02 -7.8299723250274E-02
198  1.9700000000000E+00 -3.2605487253123E-02 -8.0042080553320E-02
199  1.9800000000000E+00 -2.9802793414485E-02 -8.0966828702057E-02
200  1.9900000000000E+00 -2.7172097648110E-02 -8.1130714867429E-02
201  2.0000000000000E+00 -2.4709012721725E-02 -8.0591687491026E-02
202  2.0100000000000E+00 -2.2408599843857E-02 -7.9408624504846E-02
203  2.0200000000000E+00 -2.0265436940225E-02 -7.7641059407998E-02
204  2.0300000000000E+00 -1.8273687705725E-02 -7.5348906344831E-02
205  2.0400000000000E+00 -1.6427171101203E-02 -7.2592185301544E-02
206  2.0500000000000E+00 -1.4719430964187E-02 -6.9430748619862E-02
207  2.0600000000000E+00 -1.3143805496559E-02 -6.5924009556824E-02
208  2.0700000000000E+00 -1.1693496168486E-02 -6.2130674553303E-02
209  2.0800000000000E+00 -1.0361635872663E-02 -5.8108479720417E-02
210  2.0900000000000E+00 -9.1413559780858E-03 -5.3913932755732E-02
211  2.1000000000000E+00 -8.0258518341996E-03 -4.9602061854428E-02
212  2.1100000000000E+00 -7.0084467898613E-03 -4.5226171332384E-02
213  2.1200000000000E+00 -6.0826539500136E-03 -4.0837606673150E-02
214  2.1300000000000E+00 -5.2422358783827E-03 -3.6485528219327E-02
215  2.1400000000000E+00 -4.4812617714232E-03 -3.2216695156291E-02
216  2.1500000000000E+00 -3.7941615104769E-03 -2.8075261848036E-02
217  2.1600000000000E+00 -3.1757767918448E-03 -2.4102585888036E-02
218  2.1700000000000E+00 -2.6214092354393E-03 -2.0337047859151E-02
219  2.1800000000000E+00 -2.1268651369311E-03 -1.6813884202110E-02
220  2.1900000000000E+00 -1.6884969976815E-03 -1.3565032589207E-02
221  2.2000000000000E+00 -1.3034853217621E-03 -1.0621078508867E-02
222  2.2100000000000E+00 -9.6900825792211E-04 -8.0038336759006E-03
223  2.2200000000000E+00 -6.8288480720545E-04 -5.7313996627684E-03
224  2.2300000000000E+00 -4.4311873100225E-04 -3.8108083656901E-03
225  2.2400000000000E+00 -2.5246078364634E-04 -2.2898919121126E-03
226  2.2500000000000E+00 -1.1237360654009E-04 -1.1955635598200E-03
227  2.2600000000000E+00 -2.1896153842830E-05 -5.1169516967869E-04
228  2.2700000000000E+00  2.4425406328164E-05 -1.4679367909643E-04
229  2.2800000000000E+00  3.3533366755253E-05  3.0518199233601E-06
230  2.2900000000000E+00  2.0216961058889E-05  2.8697579537555E-05
231  2.3000000000000E+00  1.3594075940506E-06  2.6044696283591E-06
232  2.3100000000000E+00 -5.9947889812373E-06 -1.3231770400553E-05
233  2.3200000000000E+00 -4.6124736967608E-06 -1.1177902534645E-05
234  2.3300000000000E+00  2.7840267898855E-07  4.4855685342432E-07
235  2.3400000000000E+00  1.2718075893390E-06  2.2210954277097E-06
236  2.3500000000000E+00  7.8493905027064E-07  1.4539301594437E-06
237  2.3600000000000E+00 -4.0360379420190E-08  9.6477152258018E-08
238  2.3700000000000E+00 -8.9960022730394E-08  2.1503977253874E-07
239  2.3800000000000E+00 -4.1923650749286E-08  1.0021398447328E-07
240  2.3900000000000E+00  0.0000000000000E+00  0.0000000000000E+00
241  2.4000000000000E+00  0.0000000000000E+00  0.0000000000000E+00
242  2.4100000000000E+00  0.0000000000000E+00  0.0000000000000E+00
243  2.4200000000000E+00  0.0000000000000E+00  0.0000000000000E+00
244  2.4300000000000E+00  0.0000000000000E+00  0.0000000000000E+00
245  2.4400000000000E+00  0.0000000000000E+00  0.0000000000000E+00
246  2.4500000000000E+00  0.0000000000000E+00  0.0000000000000E+00
247  2.4600000000000E+00  0.0000000000000E+00  0.0000000000000E+00
248  2.4700000000000E+00  0.0000000000000E+00  0.0000000000000E+00
249  2.4800000000000E+00  0.0000000000000E+00  0.0000000000000E+00
250  2.4900000000000E+00  0.0000000000000E+00  0.0000000000000E+00
251  2.5000000000000E+00  0.0000000000000E+00  0.0000000000000E+00
252  2.5100000000000E+00  0.0000000000000E+00  0.0000000000000E+00
253  2.5200000000000E+00  0.0000000000000E+00  0.0000000000000E+00
254  2.5300000000000E+00  0.0000000000000E+00  0.0000000000000E+00
255  2.5400000000000E+00  0.0000000000000E+00  0.0000000000000E+00
256  2.5500000000000E+00  0.0000000000000E+00  0.0000000000000E+00
257  2.5600000000000E+00  0.0000000000000E+00  0.0000000000000E+00
258  2.5700000000000E+00  0.0000000000000E+00  0.0000000000000E+00
259  2.5800000000000E+00  0.0000000000000E+00  0.0000000000000E+00
260  2.5900000000000E+00  0.0000000000000E+00  0.0000000000000E+00
261  2.6000000000000E+00  0.0000000000000E+00  0.0000000000000E+00
262  2.6100000000000E+00  0.0000000000000E+00  0.0000000000000E+00
263  2.6200000000000E+00  0.0000000000000E+00  0.0000000000000E+00
264  2.6300000000000E+00  0.0000000000000E+00  0.0000000000000E+00
265  2.6400000000000E+00  0.0000000000000E+00  0.0000000000000E+00
266  2.6500000000000E+00  0.0000000000000E+00  0.0000000000000E+00
267  2.6600000000000E+00  0.0000000000000E+00  0.0000000000000E+00
268  2.6700000000000E+00  0.0000000000000E+00  0.0000000000000E+00
269  2.6800000000000E+00  0.0000000000000E+00  0.0000000000000E+00
270  2.6900000000000E+00  0.0000000000000E+00  0.0000000000000E+00
271  2.7000000000000E+00  0.0000000000000E+00  0.0000000000000E+00
272  2.7100000000000E+00  0.0000000000000E+00  0.0000000000000E+00
273  2.7200000000000E+00  0.0000000000000E+00  0.0000000000000E+00
274  2.7300000000000E+00  0.0000000000000E+00  0.0000000000000E+00
275  2.7400000000000E+00  0.0000000000000E+00  0.0000000000000E+00
276  2.7500000000000E+00  0.0000000000000E+00  0.0000000000000E+00
277  2.7600000000000E+00  0.0000000000000E+00  0.0000000000000E+00
278  2.7700000000000E+00  0.0000000000000E+00  0.0000000000000E+00
279  2.7800000000000E+00  0.0000000000000E+00  0.0000000000000E+00
280  2.7900000000000E+00  0.0000000000000E+00  0.0000000000000E+00
281  2.8000000000000E+00  0.0000000000000E+00  0.0000000000000E+00
282  2.8100000000000E+00  0.0000000000000E+00  0.0000000000000E+00
283  2.8200000000000E+00  0.0000000000000E+00  0.0000000000000E+00
284  2.8300000000000E+00  0.0000000000000E+00  0.0000000000000E+00
285  2.8400000000000E+00  0.0000000000000E+00  0.0000000000000E+00
286  2.8500000000000E+00  0.0000000000000E+00  0.0000000000000E+00
287  2.8600000000000E+00  0.0000000000000E+00  0.0000000000000E+00
288  2.8700000000000E+00  0.0000000000000E+00  0.0000000000000E+00
289  2.8800000000000E+00  0.0000000000000E+00  0.0000000000000E+00
290  2.8900000000000E+00  0.0000000000000E+00  0.0000000000000E+00
291  2.9000000000000E+00  0.0000000000000E+00  0.0000000000000E+00
292  2.9100000000000E+00  0.0000000000000E+00  0.0000000000000E+00
293  2.9200000000000E+00  0.0000000000000E+00  0.0000000000000E+00
294  2.9300000000000E+00  0.0000000000000E+00  0.0000000000000E+00
295  2.9400000000000E+00  0.0000000000000E+00  0.0000000000000E+00
296  2.9500000000000E+00  0.0000000000000E+00  0.0000000000000E+00
297  2.9600000000000E+00  0.0000000000000E+00  0.0000000000000E+00
298  2.9700000000000E+00  0.0000000000000E+00  0.0000000000000E+00
299  2.9800000000000E+00  0.0000000000000E+00  0.0000000000000E+00
300  2.9900000000000E+00  0.0000000000000E+00  0.0000000000000E+00
301  3.0000000000000E+00  0.0000000000000E+00  0.0000000000000E+00
302  3.0100000000000E+00  0.0000000000000E+00  0.0000000000000E+00
303  3.0200000000000E+00  0.0000000000000E+00  0.0000000000000E+00
304  3.0300000000000E+00  0.0000000000000E+00  0.0000000000000E+00
305  3.0400000000000E+00  0.0000000000000E+00  0.0000000000000E+00
306  3.0500000000000E+00  0.0000000000000E+00  0.0000000000000E+00
307  3.0600000000000E+00  0.0000000000000E+00  0.0000000000000E+00
308  3.0700000000000E+00  0.0000000000000E+00  0.0000000000000E+00
309  3.0800000000000E+00  0.0000000000000E+00  0.0000000000000E+00
310  3.0900000000000E+00  0.0000000000000E+00  0.0000000000000E+00
311  3.1000000000000E+00  0.0000000000000E+00  0.0000000000000E+00
312  3.1100000000000E+00  0.0000000000000E+00  0.0000000000000E+00
313  3.1200000000000E+00  0.0000000000000E+00  0.0000000000000E+00
314  3.1300000000000E+00  0.0000000000000E+00  0.0000000000000E+00
315  3.1400000000000E+00  0.0000000000000E+00  0.0000000000000E+00
316  3.1500000000000E+00  0.0000000000000E+00  0.0000000000000E+00
317  3.1600000000000E+00  0.0000000000000E+00  0.0000000000000E+00
318  3.1700000000000E+00  0.0000000000000E+00  0.0000000000000E+00
319  3.1800000000000E+00  0.0000000000000E+00  0.0000000000000E+00
320  3.1900000000000E+00  0.0000000000000E+00  0.0000000000000E+00
321  3.2000000000000E+00  0.0000000000000E+00  0.0000000000000E+00
322  3.2100000000000E+00  0.0000000000000E+00  0.0000000000000E+00
323  3.2200000000000E+00  0.0000000000000E+00  0.0000000000000E+00
324  3.2300000000000E+00  0.0000000000000E+00  0.0000000000000E+00
325  3.2400000000000E+00  0.0000000000000E+00  0.0000000000000E+00
326  3.2500000000000E+00  0.0000000000000E+00  0.0000000000000E+00
327  3.2600000000000E+00  0.0000000000000E+00  0.0000000000000E+00
328  3.2700000000000E+00  0.0000000000000E+00  0.0000000000000E+00
329  3.2800000000000E+00  0.0000000000000E+00  0.0000000000000E+00
330  3.2900000000000E+00  0.0000000000000E+00  0.0000000000000E+00
331  3.3000000000000E+00  0.0000000000000E+00  0.0000000000000E+00
332  3.3100000000000E+00  0.0000000000000E+00  0.0000000000000E+00
333  3.3200000000000E+00  0.0000000000000E+00  0.0000000000000E+00
334  3.3300000000000E+00  0.0000000000000E+00  0.0000000000000E+00
335  3.3400000000000E+00  0.0000000000000E+00  0.0000000000000E+00
336  3.3500000000000E+00  0.0000000000000E+00  0.0000000000000E+00
337  3.3600000000000E+00  0.0000000000000E+00  0.0000000000000E+00
338  3.3700000000000E+00  0.0000000000000E+00  0.0000000000000E+00
339  3.3800000000000E+00  0.0000000000000E+00  0.0000000000000E+00
340  3.3900000000000E+00  0.0000000000000E+00  0.0000000000000E+00
341  3.4000000000000E+00  0.0000000000000E+00  0.0000000000000E+00
342  3.4100000000000E+00  0.0000000000000E+00  0.0000000000000E+00
343  3.4200000000000E+00  0.0000000000000E+00  0.0000000000000E+00
344  3.4300000000000E+00  0.0000000000000E+00  0.0000000000000E+00
345  3.4400000000000E+00  0.0000000000000E+00  0.0000000000000E+00
346  3.4500000000000E+00  0.0000000000000E+00  0.0000000000000E+00
347  3.4600000000000E+00  0.0000000000000E+00  0.0000000000000E+00
348  3.4700000000000E+00  0.0000000000000E+00  0.0000000000000E+00
349  3.4800000000000E+00  0.0000000000000E+00  0.0000000000000E+00
350  3.4900000000000E+00  0.0000000000000E+00  0.0000000000000E+00
351  3.5000000000000E+00  0.0000000000000E+00  0.0000000000000E+00
352  3.5100000000000E+00  0.0000000000000E+00  0.0000000000000E+00
353  3.5200000000000E+00  0.0000000000000E+00  0.0000000000000E+00
354  3.5300000000000E+00  0.0000000000000E+00  0.0000000000000E+00
355  3.5400000000000E+00  0.0000000000000E+00  0.0000000000000E+00
356  3.5500000000000E+00  0.0000000000000E+00  0.0000000000000E+00
357  3.5600000000000E+00  0.0000000000000E+00  0.0000000000000E+00
358  3.5700000000000E+00  0.0000000000000E+00  0.0000000000000E+00
359  3.5800000000000E+00  0.0000000000000E+00  0.0000000000000E+00
360  3.5900000000000E+00  0.0000000000000E+00  0.0000000000000E+00
361  3.6000000000000E+00  0.0000000000000E+00  0.0000000000000E+00
362  3.6100000000000E+00  0.0000000000000E+00  0.0000000000000E+00
363  3.6200000000000E+00  0.0000000000000E+00  0.0000000000000E+00
364  3.6300000000000E+00  0.0000000000000E+00  0.0000000000000E+00
365  3.6400000000000E+00  0.0000000000000E+00  0.0000000000000E+00
366  3.6500000000000E+00  0.0000000000000E+00  0.0000000000000E+00
367  3.6600000000000E+00  0.0000000000000E+00  0.0000000000000E+00
368  3.6700000000000E+00  0.0000000000000E+00  0.0000000000000E+00
369  3.6800000000000E+00  0.0000000000000E+00  0.0000000000000E+00
370  3.6900000000000E+00  0.0000000000000E+00  0.0000000000000E+00
371  3.7000000000000E+00  0.0000000000000E+00  0.0000000000000E+00
372  3.7100000000000E+00  0.0000000000000E+00  0.0000000000000E+00
373  3.7200000000000E+00  0.0000000000000E+00  0.0000000000000E+00
374  3.7300000000000E+00  0.0000000000000E+00  0.0000000000000E+00
375  3.7400000000000E+00  0.0000000000000E+00  0.0000000000000E+00
376  3.7500000000000E+00  0.0000000000000E+00  0.0000000000000E+00
377  3.7600000000000E+00  0.0000000000000E+00  0.0000000000000E+00
378  3.7700000000000E+00  0.0000000000000E+00  0.0000000000000E+00
379  3.7800000000000E+00  0.0000000000000E+00  0.0000000000000E+00
380  3.7900000000000E+00  0.0000000000000E+00  0.0000000000000E+00
381  3.8000000000000E+00  0.0000000000000E+00  0.0000000000000E+00
382  3.8100000000000E+00  0.0000000000000E+00  0.0000000000000E+00
383  3.8200000000000E+00  0.0000000000000E+00  0.0000000000000E+00
384  3.8300000000000E+00  0.0000000000000E+00  0.0000000000000E+00
385  3.8400000000000E+00  0.0000000000000E+00  0.0000000000000E+00
386  3.8500000000000E+00  0.0000000000000E+00  0.0000000000000E+00
387  3.8600000000000E+00  0.0000000000000E+00  0.0000000000000E+00
388  3.8700000000000E+00  0.0000000000000E+00  0.0000000000000E+00
389  3.8800000000000E+00  0.0000000000000E+00  0.0000000000000E+00
390  3.8900000000000E+00  0.0000000000000E+00  0.0000000000000E+00
391  3.9000000000000E+00  0.0000000000000E+00  0.0000000000000E+00
392  3.9100000000000E+00  0.0000000000000E+00  0.0000000000000E+00
393  3.9200000000000E+00  0.0000000000000E+00  0.0000000000000E+00
394  3.9300000000000E+00  0.0000000000000E+00  0.0000000000000E+00
395  3.9400000000000E+00  0.0000000000000E+00  0.0000000000000E+00
396  3.9500000000000E+00  0.0000000000000E+00  0.0000000000000E+00
397  3.9600000000000E+00  0.0000000000000E+00  0.0000000000000E+00
398  3.9700000000000E+00  0.0000000000000E+00  0.0000000000000E+00
399  3.9800000000000E+00  0.0000000000000E+00  0.0000000000000E+00
400  3.9900000000000E+00  0.0000000000000E+00  0.0000000000000E+00
401  4.0000000000000E+00  0.0000000000000E+00  0.0000000000000E+00
402  4.0100000000000E+00  0.0000000000000E+00  0.0000000000000E+00
403  4.0200000000000E+00  0.0000000000000E+00  0.0000000000000E+00
404  4.0300000000000E+00  0.0000000000000E+00  0.0000000000000E+00
405  4.0400000000000E+00  0.0000000000000E+00  0.0000000000000E+00
406  4.0500000000000E+00  0.0000000000000E+00  0.0000000000000E+00
407  4.0600000000000E+00  0.0000000000000E+00  0.0000000000000E+00
408  4.0700000000000E+00  0.0000000000000E+00  0.0000000000000E+00
409  4.0800000000000E+00  0.0000000000000E+00  0.0000000000000E+00
410  4.0900000000000E+00  0.0000000000000E+00  0.0000000000000E+00
411  4.1000000000000E+00  0.0000000000000E+00  0.0000000000000E+00
412  4.1100000000000E+00  0.0000000000000E+00  0.0000000000000E+00
413  4.1200000000000E+00  0.0000000000000E+00  0.0000000000000E+00
414  4.1300000000000E+00  0.0000000000000E+00  0.0000000000000E+00
415  4.1400000000000E+00  0.0000000000000E+00  0.0000000000000E+00
416  4.1500000000000E+00  0.0000000000000E+00  0.0000000000000E+00
417  4.1600000000000E+00  0.0000000000000E+00  0.0000000000000E+00
418  4.1700000000000E+00  0.0000000000000E+00  0.0000000000000E+00
419  4.1800000000000E+00  0.0000000000000E+00  0.0000000000000E+00
420  4.1900000000000E+00  0.0000000000000E+00  0.0000000000000E+00
421  4.2000000000000E+00  0.0000000000000E+00  0.0000000000000E+00
422  4.2100000000000E+00  0.0000000000000E+00  0.0000000000000E+00
423  4.2200000000000E+00  0.0000000000000E+00  0.0000000000000E+00
424  4.2300000000000E+00  0.0000000000000E+00  0.0000000000000E+00
425  4.2400000000000E+00  0.0000000000000E+00  0.0000000000000E+00
426  4.2500000000000E+00  0.0000000000000E+00  0.0000000000000E+00
427  4.2600000000000E+00  0.0000000000000E+00  0.0000000000000E+00
428  4.2700000000000E+00  0.0000000000000E+00  0.0000000000000E+00
429  4.2800000000000E+00  0.0000000000000E+00  0.0000000000000E+00
430  4.2900000000000E+00  0.0000000000000E+00  0.0000000000000E+00
431  4.3000000000000E+00  0.0000000000000E+00  0.0000000000000E+00
432  4.3100000000000E+00  0.0000000000000E+00  0.0000000000000E+00
433  4.3200000000000E+00  0.0000000000000E+00  0.0000000000000E+00
434  4.3300000000000E+00  0.0000000000000E+00  0.0000000000000E+00
435  4.3400000000000E+00  0.0000000000000E+00  0.0000000000000E+00
436  4.3500000000000E+00  0.0000000000000E+00  0.0000000000000E+00
437  4.3600000000000E+00  0.0000000000000E+00  0.0000000000000E+00
438  4.3700000000000E+00  0.0000000000000E+00  0.0000000000000E+00
439  4.3800000000000E+00  0.0000000000000E+00  0.0000000000000E+00
440  4.3900000000000E+00  0.0000000000000E+00  0.0000000000000E+00
441  4.4000000000000E+00  0.0000000000000E+00  0.0000000000000E+00
442  4.4100000000000E+00  0.0000000000000E+00  0.0000000000000E+00
443  4.4200000000000E+00  0.0000000000000E+00  0.0000000000000E+00