Hf    ONCVPSP-3.2.3.1  r_core=   1.55994   1.61677   1.40114   1.61677
72.0000     26.0000      170501    zatom,zion,pspd
8      11   3     4   600     0    pspcod,pspxc,lmax,lloc,mmax,r2well
5.99000000  3.00000000  0.00000000    rchrg fchrg qchrg
2     2     2     2     0    nproj
1     1           extension_switch
0                         1.2993029442093E+01  1.4509481700393E+00
1  0.0000000000000E+00 -1.5259304930737E-10  7.1483324814992E-10
2  1.0000000000000E-02  4.9995450472858E-02 -2.2226727345067E-02
3  2.0000000000000E-02  9.9936262550431E-02 -4.4342985074399E-02
4  3.0000000000000E-02  1.4976792625897E-01 -6.6239286287765E-02
5  4.0000000000000E-02  1.9943618614248E-01 -8.7808095795583E-02
6  5.0000000000000E-02  2.4888716274768E-01 -1.0894477185746E-01
7  6.0000000000000E-02  2.9806746729022E-01 -1.2954846749399E-01
8  7.0000000000000E-02  3.4692430741075E-01 -1.4952297874519E-01
9  8.0000000000000E-02  3.9540558208203E-01 -1.6877752796396E-01
10  9.0000000000000E-02  4.4345996391539E-01 -1.8722747111005E-01
11  1.0000000000000E-01  4.9103696733342E-01 -2.0479491903974E-01
12  1.1000000000000E-01  5.3808700132358E-01 -2.2140926395551E-01
13  1.2000000000000E-01  5.8456140576115E-01 -2.3700760347517E-01
14  1.3000000000000E-01  6.3041247058483E-01 -2.5153505618438E-01
15  1.4000000000000E-01  6.7559343742223E-01 -2.6494496403490E-01
16  1.5000000000000E-01  7.2005848358908E-01 -2.7719897852270E-01
17  1.6000000000000E-01  7.6376268872254E-01 -2.8826702920798E-01
18  1.7000000000000E-01  8.0666198464909E-01 -2.9812717480111E-01
19  1.8000000000000E-01  8.4871308942804E-01 -3.0676533871502E-01
20  1.9000000000000E-01  8.8987342684622E-01 -3.1417493265350E-01
21  2.0000000000000E-01  9.3010103296343E-01 -3.2035637344488E-01
22  2.1000000000000E-01  9.6935445161804E-01 -3.2531649992067E-01
23  2.2000000000000E-01  1.0075926210903E+00 -3.2906789815757E-01
24  2.3000000000000E-01  1.0447747543854E+00 -3.3162814482814E-01
25  2.4000000000000E-01  1.0808602158346E+00 -3.3301897972122E-01
26  2.5000000000000E-01  1.1158083969107E+00 -3.3326541967891E-01
27  2.6000000000000E-01  1.1495785943249E+00 -3.3239482723526E-01
28  2.7000000000000E-01  1.1821298935888E+00 -3.3043594811721E-01
29  2.8000000000000E-01  1.2134210613121E+00 -3.2741793246662E-01
30  2.9000000000000E-01  1.2434104495353E+00 -3.2336935515118E-01
31  3.0000000000000E-01  1.2720559153886E+00 -3.1831725084166E-01
32  3.1000000000000E-01  1.2993147592987E+00 -3.1228617963620E-01
33  3.2000000000000E-01  1.3251436848586E+00 -3.0529733890250E-01
34  3.3000000000000E-01  1.3494987833049E+00 -2.9736773668488E-01
35  3.4000000000000E-01  1.3723355453398E+00 -2.8850944148344E-01
36  3.5000000000000E-01  1.3936089027680E+00 -2.7872892246083E-01
37  3.6000000000000E-01  1.4132733021132E+00 -2.6802649317290E-01
38  3.7000000000000E-01  1.4312828120219E+00 -2.5639587076110E-01
39  3.8000000000000E-01  1.4475912658718E+00 -2.4382386119723E-01
40  3.9000000000000E-01  1.4621524405663E+00 -2.3029017964942E-01
41  4.0000000000000E-01  1.4749202720347E+00 -2.1576741335574E-01
42  4.1000000000000E-01  1.4858491074633E+00 -2.0022113256951E-01
43  4.2000000000000E-01  1.4948939937668E+00 -1.8361015319561E-01
44  4.3000000000000E-01  1.5020110012794E+00 -1.6588695269546E-01
45  4.4000000000000E-01  1.5071575811015E+00 -1.4699823872078E-01
46  4.5000000000000E-01  1.5102929539918E+00 -1.2688566777150E-01
47  4.6000000000000E-01  1.5113785281552E+00 -1.0548670898541E-01
48  4.7000000000000E-01  1.5103783427415E+00 -8.2735645987216E-02
49  4.8000000000000E-01  1.5072595333615E+00 -5.8564707577484E-02
50  4.9000000000000E-01  1.5019928154337E+00 -3.2905315960104E-02
51  5.0000000000000E-01  1.4945529807236E+00 -5.6894392157056E-03
52  5.1000000000000E-01  1.4849194020178E+00  2.3148967141753E-02
53  5.2000000000000E-01  1.4730765405068E+00  5.3672446410713E-02
54  5.3000000000000E-01  1.4590144501321E+00  8.5938473185255E-02
55  5.4000000000000E-01  1.4427292728931E+00  1.1999785186167E-01
56  5.5000000000000E-01  1.4242237189150E+00  1.5589310208422E-01
57  5.6000000000000E-01  1.4035075249509E+00  1.9365685293568E-01
58  5.7000000000000E-01  1.3805978849358E+00  2.3331026830780E-01
59  5.8000000000000E-01  1.3555198462335E+00  2.7486152624363E-01
60  5.9000000000000E-01  1.3283066653140E+00  3.1830437511506E-01
61  6.0000000000000E-01  1.2990001167774E+00  3.6361678927486E-01
62  6.1000000000000E-01  1.2676507499014E+00  4.1075974630462E-01
63  6.2000000000000E-01  1.2343180872229E+00  4.5967614715415E-01
64  6.3000000000000E-01  1.1990707600832E+00  5.1028989935697E-01
65  6.4000000000000E-01  1.1619865765544E+00  5.6250518209510E-01
66  6.5000000000000E-01  1.1231525177302E+00  6.1620591019841E-01
67  6.6000000000000E-01  1.0826646589890E+00  6.7125541222090E-01
68  6.7000000000000E-01  1.0406280135329E+00  7.2749633552848E-01
69  6.8000000000000E-01  9.9715629625012E-01  7.8475078891389E-01
70  6.9000000000000E-01  9.5237160674154E-01  8.4282073063667E-01
71  7.0000000000000E-01  9.0640403118511E-01  9.0148860698807E-01
72  7.1000000000000E-01  8.5939116357728E-01  9.6051824354831E-01
73  7.2000000000000E-01  8.1147754777301E-01  1.0196559882679E+00
74  7.3000000000000E-01  7.6281404264378E-01  1.0786321023902E+00
75  7.4000000000000E-01  7.1355711356513E-01  1.1371623921056E+00
76  7.5000000000000E-01  6.6386805433662E-01  1.1949500706744E+00
77  7.6000000000000E-01  6.1391214449798E-01  1.2516878376825E+00
78  7.7000000000000E-01  5.6385774783943E-01  1.3070601590876E+00
79  7.8000000000000E-01  5.1387535869469E-01  1.3607457288389E+00
80  7.9000000000000E-01  4.6413660334173E-01  1.4124200901451E+00
81  8.0000000000000E-01  4.1481320451048E-01  1.4617583919562E+00
82  8.1000000000000E-01  3.6607591759818E-01  1.5084382539590E+00
83  8.2000000000000E-01  3.1809344771166E-01  1.5521427113886E+00
84  8.3000000000000E-01  2.7103135708690E-01  1.5925632092663E+00
85  8.4000000000000E-01  2.2505097276915E-01  1.6294026143080E+00
86  8.5000000000000E-01  1.8030830466751E-01  1.6623782117427E+00
87  8.6000000000000E-01  1.3695298422135E-01  1.6912246536420E+00
88  8.7000000000000E-01  9.5127233927744E-02  1.7156968251126E+00
89  8.8000000000000E-01  5.4964877877931E-02  1.7355725948613E+00
90  8.9000000000000E-01  1.6590403235163E-02  1.7506554171889E+00
91  9.0000000000000E-01 -1.9881917745228E-02  1.7607767534419E+00
92  9.1000000000000E-01 -5.4348835991094E-02  1.7657982822973E+00
93  9.2000000000000E-01 -8.6718855576029E-02  1.7656138700158E+00
94  9.3000000000000E-01 -1.1691287741408E-01  1.7601512739213E+00
95  9.4000000000000E-01 -1.4486474948468E-01  1.7493735548385E+00
96  9.5000000000000E-01 -1.7052171722933E-01  1.7332801770323E+00
97  9.6000000000000E-01 -1.9384476868697E-01  1.7119077772955E+00
98  9.7000000000000E-01 -2.1480886993228E-01  1.6853305882013E+00
99  9.8000000000000E-01 -2.3340308743995E-01  1.6536605041363E+00
100  9.9000000000000E-01 -2.4963059510261E-01  1.6170467824951E+00
101  1.0000000000000E+00 -2.6350856479579E-01  1.5756753764131E+00
102  1.0100000000000E+00 -2.7506794050476E-01  1.5297678992655E+00
103  1.0200000000000E+00 -2.8435309725938E-01  1.4795802253977E+00
104  1.0300000000000E+00 -2.9142138726976E-01  1.4254007355117E+00
105  1.0400000000000E+00 -2.9634257681549E-01  1.3675482191396E+00
106  1.0500000000000E+00 -2.9919817856194E-01  1.3063694505083E+00
107  1.0600000000000E+00 -3.0008068509537E-01  1.2422364579737E+00
108  1.0700000000000E+00 -2.9909271038170E-01  1.1755435103583E+00
109  1.0800000000000E+00 -2.9634604693935E-01  1.1067038472800E+00
110  1.0900000000000E+00 -2.9196064728086E-01  1.0361461831998E+00
111  1.1000000000000E+00 -2.8606353898480E-01  9.6431101769315E-01
112  1.1100000000000E+00 -2.7878768341277E-01  8.9164678668722E-01
113  1.1200000000000E+00 -2.7027078860661E-01  8.1860589118266E-01
114  1.1300000000000E+00 -2.6065408739901E-01  7.4564064165340E-01
115  1.1400000000000E+00 -2.5008109200621E-01  6.7319915708289E-01
116  1.1500000000000E+00 -2.3869633653820E-01  6.0172125809490E-01
117  1.1600000000000E+00 -2.2664411894876E-01  5.3163439388342E-01
118  1.1700000000000E+00 -2.1406725381233E-01  4.6334964204976E-01
119  1.1800000000000E+00 -2.0110584705340E-01  3.9725781945639E-01
120  1.1900000000000E+00 -1.8789610340057E-01  3.3372574085866E-01
121  1.2000000000000E+00 -1.7456917694650E-01  2.7309266060329E-01
122  1.2100000000000E+00 -1.6125007442347E-01  2.1566692983018E-01
123  1.2200000000000E+00 -1.4805661995972E-01  1.6172289851831E-01
124  1.2300000000000E+00 -1.3509848980939E-01  1.1149809070506E-01
125  1.2400000000000E+00 -1.2247632392538E-01  6.5190675276087E-02
126  1.2500000000000E+00 -1.1028092039885E-01  2.2957251660225E-02
127  1.2600000000000E+00 -9.8592517690726E-02 -1.5089034885242E-02
128  1.2700000000000E+00 -8.7480170644841E-02 -4.8880026409193E-02
129  1.2800000000000E+00 -7.7001208923354E-02 -7.8393791606000E-02
130  1.2900000000000E+00 -6.7200867825606E-02 -1.0365515894477E-01
131  1.3000000000000E+00 -5.8111826544954E-02 -1.2473677613074E-01
132  1.3100000000000E+00 -4.9753929436044E-02 -1.4175945503549E-01
133  1.3200000000000E+00 -4.2135403096771E-02 -1.5488530432957E-01
134  1.3300000000000E+00 -3.5254242262331E-02 -1.6431066183771E-01
135  1.3400000000000E+00 -2.9099996638908E-02 -1.7025761546279E-01
136  1.3500000000000E+00 -2.3654218116232E-02 -1.7297229627639E-01
137  1.3600000000000E+00 -1.8891128054105E-02 -1.7272225954193E-01
138  1.3700000000000E+00 -1.4778442133106E-02 -1.6979313128509E-01
139  1.3800000000000E+00 -1.1278197490609E-02 -1.6448535889616E-01
140  1.3900000000000E+00 -8.3476385677967E-03 -1.5711074387604E-01
141  1.4000000000000E+00 -5.9401367321448E-03 -1.4798887174953E-01
142  1.4100000000000E+00 -4.0061372717201E-03 -1.3744345627247E-01
143  1.4200000000000E+00 -2.4941229196320E-03 -1.2579863790449E-01
144  1.4300000000000E+00 -1.3515778930299E-03 -1.1337529828359E-01
145  1.4400000000000E+00 -5.2594489833676E-04 -1.0048741538476E-01
146  1.4500000000000E+00  3.4432632300078E-05 -8.7438484729847E-02
147  1.4600000000000E+00  3.7939998138625E-04 -7.4518072587221E-02
148  1.4700000000000E+00  5.5612166666178E-04 -6.1998534937936E-02
149  1.4800000000000E+00  6.0826141361826E-04 -5.0131930082753E-02
150  1.4900000000000E+00  5.7522007444913E-04 -3.9147156886020E-02
151  1.5000000000000E+00  4.9144420907602E-04 -2.9247365296183E-02
152  1.5100000000000E+00  3.8594315652727E-04 -2.0612250737986E-02
153  1.5200000000000E+00  2.8120008264563E-04 -1.3376943663938E-02
154  1.5300000000000E+00  1.9175774297503E-04 -7.6200969082267E-03
155  1.5400000000000E+00  1.3177795269924E-04 -3.5263869606611E-03
156  1.5500000000000E+00  1.0923499053806E-04 -1.2151178121117E-03
157  1.5600000000000E+00  9.0808364501817E-05 -2.5121613287177E-04
158  1.5700000000000E+00  4.1055220274636E-05  9.2075825117922E-06
159  1.5800000000000E+00 -2.9730980998683E-06 -3.8148511196411E-06
160  1.5900000000000E+00 -7.9855644271422E-06 -1.6265493911097E-05
161  1.6000000000000E+00  9.6003572173531E-07  7.0473581646136E-07
162  1.6100000000000E+00  1.7548442754872E-06  1.7787374965752E-06
163  1.6200000000000E+00 -1.4451012411969E-07  4.0408707098675E-07
164  1.6300000000000E+00 -2.0830670550660E-07  5.8247854264758E-07
165  1.6400000000000E+00  0.0000000000000E+00  0.0000000000000E+00
166  1.6500000000000E+00  0.0000000000000E+00  0.0000000000000E+00
167  1.6600000000000E+00  0.0000000000000E+00  0.0000000000000E+00
168  1.6700000000000E+00  0.0000000000000E+00  0.0000000000000E+00
169  1.6800000000000E+00  0.0000000000000E+00  0.0000000000000E+00
170  1.6900000000000E+00  0.0000000000000E+00  0.0000000000000E+00
171  1.7000000000000E+00  0.0000000000000E+00  0.0000000000000E+00
172  1.7100000000000E+00  0.0000000000000E+00  0.0000000000000E+00
173  1.7200000000000E+00  0.0000000000000E+00  0.0000000000000E+00
174  1.7300000000000E+00  0.0000000000000E+00  0.0000000000000E+00
175  1.7400000000000E+00  0.0000000000000E+00  0.0000000000000E+00
176  1.7500000000000E+00  0.0000000000000E+00  0.0000000000000E+00
177  1.7600000000000E+00  0.0000000000000E+00  0.0000000000000E+00
178  1.7700000000000E+00  0.0000000000000E+00  0.0000000000000E+00
179  1.7800000000000E+00  0.0000000000000E+00  0.0000000000000E+00
180  1.7900000000000E+00  0.0000000000000E+00  0.0000000000000E+00
181  1.8000000000000E+00  0.0000000000000E+00  0.0000000000000E+00
182  1.8100000000000E+00  0.0000000000000E+00  0.0000000000000E+00
183  1.8200000000000E+00  0.0000000000000E+00  0.0000000000000E+00
184  1.8300000000000E+00  0.0000000000000E+00  0.0000000000000E+00
185  1.8400000000000E+00  0.0000000000000E+00  0.0000000000000E+00
186  1.8500000000000E+00  0.0000000000000E+00  0.0000000000000E+00
187  1.8600000000000E+00  0.0000000000000E+00  0.0000000000000E+00
188  1.8700000000000E+00  0.0000000000000E+00  0.0000000000000E+00
189  1.8800000000000E+00  0.0000000000000E+00  0.0000000000000E+00
190  1.8900000000000E+00  0.0000000000000E+00  0.0000000000000E+00
191  1.9000000000000E+00  0.0000000000000E+00  0.0000000000000E+00
192  1.9100000000000E+00  0.0000000000000E+00  0.0000000000000E+00
193  1.9200000000000E+00  0.0000000000000E+00  0.0000000000000E+00
194  1.9300000000000E+00  0.0000000000000E+00  0.0000000000000E+00
195  1.9400000000000E+00  0.0000000000000E+00  0.0000000000000E+00
196  1.9500000000000E+00  0.0000000000000E+00  0.0000000000000E+00
197  1.9600000000000E+00  0.0000000000000E+00  0.0000000000000E+00
198  1.9700000000000E+00  0.0000000000000E+00  0.0000000000000E+00
199  1.9800000000000E+00  0.0000000000000E+00  0.0000000000000E+00
200  1.9900000000000E+00  0.0000000000000E+00  0.0000000000000E+00
201  2.0000000000000E+00  0.0000000000000E+00  0.0000000000000E+00
202  2.0100000000000E+00  0.0000000000000E+00  0.0000000000000E+00
203  2.0200000000000E+00  0.0000000000000E+00  0.0000000000000E+00
204  2.0300000000000E+00  0.0000000000000E+00  0.0000000000000E+00
205  2.0400000000000E+00  0.0000000000000E+00  0.0000000000000E+00
206  2.0500000000000E+00  0.0000000000000E+00  0.0000000000000E+00
207  2.0600000000000E+00  0.0000000000000E+00  0.0000000000000E+00
208  2.0700000000000E+00  0.0000000000000E+00  0.0000000000000E+00
209  2.0800000000000E+00  0.0000000000000E+00  0.0000000000000E+00
210  2.0900000000000E+00  0.0000000000000E+00  0.0000000000000E+00
211  2.1000000000000E+00  0.0000000000000E+00  0.0000000000000E+00
212  2.1100000000000E+00  0.0000000000000E+00  0.0000000000000E+00
213  2.1200000000000E+00  0.0000000000000E+00  0.0000000000000E+00
214  2.1300000000000E+00  0.0000000000000E+00  0.0000000000000E+00
215  2.1400000000000E+00  0.0000000000000E+00  0.0000000000000E+00
216  2.1500000000000E+00  0.0000000000000E+00  0.0000000000000E+00
217  2.1600000000000E+00  0.0000000000000E+00  0.0000000000000E+00
218  2.1700000000000E+00  0.0000000000000E+00  0.0000000000000E+00
219  2.1800000000000E+00  0.0000000000000E+00  0.0000000000000E+00
220  2.1900000000000E+00  0.0000000000000E+00  0.0000000000000E+00
221  2.2000000000000E+00  0.0000000000000E+00  0.0000000000000E+00
222  2.2100000000000E+00  0.0000000000000E+00  0.0000000000000E+00
223  2.2200000000000E+00  0.0000000000000E+00  0.0000000000000E+00
224  2.2300000000000E+00  0.0000000000000E+00  0.0000000000000E+00
225  2.2400000000000E+00  0.0000000000000E+00  0.0000000000000E+00
226  2.2500000000000E+00  0.0000000000000E+00  0.0000000000000E+00
227  2.2600000000000E+00  0.0000000000000E+00  0.0000000000000E+00
228  2.2700000000000E+00  0.0000000000000E+00  0.0000000000000E+00
229  2.2800000000000E+00  0.0000000000000E+00  0.0000000000000E+00
230  2.2900000000000E+00  0.0000000000000E+00  0.0000000000000E+00
231  2.3000000000000E+00  0.0000000000000E+00  0.0000000000000E+00
232  2.3100000000000E+00  0.0000000000000E+00  0.0000000000000E+00
233  2.3200000000000E+00  0.0000000000000E+00  0.0000000000000E+00
234  2.3300000000000E+00  0.0000000000000E+00  0.0000000000000E+00
235  2.3400000000000E+00  0.0000000000000E+00  0.0000000000000E+00
236  2.3500000000000E+00  0.0000000000000E+00  0.0000000000000E+00
237  2.3600000000000E+00  0.0000000000000E+00  0.0000000000000E+00
238  2.3700000000000E+00  0.0000000000000E+00  0.0000000000000E+00
239  2.3800000000000E+00  0.0000000000000E+00  0.0000000000000E+00
240  2.3900000000000E+00  0.0000000000000E+00  0.0000000000000E+00
241  2.4000000000000E+00  0.0000000000000E+00  0.0000000000000E+00
242  2.4100000000000E+00  0.0000000000000E+00  0.0000000000000E+00
243  2.4200000000000E+00  0.0000000000000E+00  0.0000000000000E+00
244  2.4300000000000E+00  0.0000000000000E+00  0.0000000000000E+00
245  2.4400000000000E+00  0.0000000000000E+00  0.0000000000000E+00
246  2.4500000000000E+00  0.0000000000000E+00  0.0000000000000E+00
247  2.4600000000000E+00  0.0000000000000E+00  0.0000000000000E+00
248  2.4700000000000E+00  0.0000000000000E+00  0.0000000000000E+00
249  2.4800000000000E+00  0.0000000000000E+00  0.0000000000000E+00
250  2.4900000000000E+00  0.0000000000000E+00  0.0000000000000E+00
251  2.5000000000000E+00  0.0000000000000E+00  0.0000000000000E+00
252  2.5100000000000E+00  0.0000000000000E+00  0.0000000000000E+00
253  2.5200000000000E+00  0.0000000000000E+00  0.0000000000000E+00
254  2.5300000000000E+00  0.0000000000000E+00  0.0000000000000E+00
255  2.5400000000000E+00  0.0000000000000E+00  0.0000000000000E+00
256  2.5500000000000E+00  0.0000000000000E+00  0.0000000000000E+00
257  2.5600000000000E+00  0.0000000000000E+00  0.0000000000000E+00
258  2.5700000000000E+00  0.0000000000000E+00  0.0000000000000E+00
259  2.5800000000000E+00  0.0000000000000E+00  0.0000000000000E+00
260  2.5900000000000E+00  0.0000000000000E+00  0.0000000000000E+00
261  2.6000000000000E+00  0.0000000000000E+00  0.0000000000000E+00
262  2.6100000000000E+00  0.0000000000000E+00  0.0000000000000E+00
263  2.6200000000000E+00  0.0000000000000E+00  0.0000000000000E+00
264  2.6300000000000E+00  0.0000000000000E+00  0.0000000000000E+00
265  2.6400000000000E+00  0.0000000000000E+00  0.0000000000000E+00
266  2.6500000000000E+00  0.0000000000000E+00  0.0000000000000E+00
267  2.6600000000000E+00  0.0000000000000E+00  0.0000000000000E+00
268  2.6700000000000E+00  0.0000000000000E+00  0.0000000000000E+00
269  2.6800000000000E+00  0.0000000000000E+00  0.0000000000000E+00
270  2.6900000000000E+00  0.0000000000000E+00  0.0000000000000E+00
271  2.7000000000000E+00  0.0000000000000E+00  0.0000000000000E+00
272  2.7100000000000E+00  0.0000000000000E+00  0.0000000000000E+00
273  2.7200000000000E+00  0.0000000000000E+00  0.0000000000000E+00
274  2.7300000000000E+00  0.0000000000000E+00  0.0000000000000E+00
275  2.7400000000000E+00  0.0000000000000E+00  0.0000000000000E+00
276  2.7500000000000E+00  0.0000000000000E+00  0.0000000000000E+00
277  2.7600000000000E+00  0.0000000000000E+00  0.0000000000000E+00
278  2.7700000000000E+00  0.0000000000000E+00  0.0000000000000E+00
279  2.7800000000000E+00  0.0000000000000E+00  0.0000000000000E+00
280  2.7900000000000E+00  0.0000000000000E+00  0.0000000000000E+00
281  2.8000000000000E+00  0.0000000000000E+00  0.0000000000000E+00
282  2.8100000000000E+00  0.0000000000000E+00  0.0000000000000E+00
283  2.8200000000000E+00  0.0000000000000E+00  0.0000000000000E+00
284  2.8300000000000E+00  0.0000000000000E+00  0.0000000000000E+00
285  2.8400000000000E+00  0.0000000000000E+00  0.0000000000000E+00
286  2.8500000000000E+00  0.0000000000000E+00  0.0000000000000E+00
287  2.8600000000000E+00  0.0000000000000E+00  0.0000000000000E+00
288  2.8700000000000E+00  0.0000000000000E+00  0.0000000000000E+00
289  2.8800000000000E+00  0.0000000000000E+00  0.0000000000000E+00
290  2.8900000000000E+00  0.0000000000000E+00  0.0000000000000E+00
291  2.9000000000000E+00  0.0000000000000E+00  0.0000000000000E+00
292  2.9100000000000E+00  0.0000000000000E+00  0.0000000000000E+00
293  2.9200000000000E+00  0.0000000000000E+00  0.0000000000000E+00
294  2.9300000000000E+00  0.0000000000000E+00  0.0000000000000E+00
295  2.9400000000000E+00  0.0000000000000E+00  0.0000000000000E+00
296  2.9500000000000E+00  0.0000000000000E+00  0.0000000000000E+00
297  2.9600000000000E+00  0.0000000000000E+00  0.0000000000000E+00
298  2.9700000000000E+00  0.0000000000000E+00  0.0000000000000E+00
299  2.9800000000000E+00  0.0000000000000E+00  0.0000000000000E+00
300  2.9900000000000E+00  0.0000000000000E+00  0.0000000000000E+00
301  3.0000000000000E+00  0.0000000000000E+00  0.0000000000000E+00
302  3.0100000000000E+00  0.0000000000000E+00  0.0000000000000E+00
303  3.0200000000000E+00  0.0000000000000E+00  0.0000000000000E+00
304  3.0300000000000E+00  0.0000000000000E+00  0.0000000000000E+00
305  3.0400000000000E+00  0.0000000000000E+00  0.0000000000000E+00
306  3.0500000000000E+00  0.0000000000000E+00  0.0000000000000E+00
307  3.0600000000000E+00  0.0000000000000E+00  0.0000000000000E+00
308  3.0700000000000E+00  0.0000000000000E+00  0.0000000000000E+00
309  3.0800000000000E+00  0.0000000000000E+00  0.0000000000000E+00
310  3.0900000000000E+00  0.0000000000000E+00  0.0000000000000E+00
311  3.1000000000000E+00  0.0000000000000E+00  0.0000000000000E+00
312  3.1100000000000E+00  0.0000000000000E+00  0.0000000000000E+00
313  3.1200000000000E+00  0.0000000000000E+00  0.0000000000000E+00
314  3.1300000000000E+00  0.0000000000000E+00  0.0000000000000E+00
315  3.1400000000000E+00  0.0000000000000E+00  0.0000000000000E+00
316  3.1500000000000E+00  0.0000000000000E+00  0.0000000000000E+00
317  3.1600000000000E+00  0.0000000000000E+00  0.0000000000000E+00
318  3.1700000000000E+00  0.0000000000000E+00  0.0000000000000E+00
319  3.1800000000000E+00  0.0000000000000E+00  0.0000000000000E+00
320  3.1900000000000E+00  0.0000000000000E+00  0.0000000000000E+00
321  3.2000000000000E+00  0.0000000000000E+00  0.0000000000000E+00
322  3.2100000000000E+00  0.0000000000000E+00  0.0000000000000E+00
323  3.2200000000000E+00  0.0000000000000E+00  0.0000000000000E+00
324  3.2300000000000E+00  0.0000000000000E+00  0.0000000000000E+00
325  3.2400000000000E+00  0.0000000000000E+00  0.0000000000000E+00
326  3.2500000000000E+00  0.0000000000000E+00  0.0000000000000E+00
327  3.2600000000000E+00  0.0000000000000E+00  0.0000000000000E+00
328  3.2700000000000E+00  0.0000000000000E+00  0.0000000000000E+00
329  3.2800000000000E+00  0.0000000000000E+00  0.0000000000000E+00
330  3.2900000000000E+00  0.0000000000000E+00  0.0000000000000E+00
331  3.3000000000000E+00  0.0000000000000E+00  0.0000000000000E+00
332  3.3100000000000E+00  0.0000000000000E+00  0.0000000000000E+00
333  3.3200000000000E+00  0.0000000000000E+00  0.0000000000000E+00
334  3.3300000000000E+00  0.0000000000000E+00  0.0000000000000E+00
335  3.3400000000000E+00  0.0000000000000E+00  0.0000000000000E+00
336  3.3500000000000E+00  0.0000000000000E+00  0.0000000000000E+00
337  3.3600000000000E+00  0.0000000000000E+00  0.0000000000000E+00
338  3.3700000000000E+00  0.0000000000000E+00  0.0000000000000E+00
339  3.3800000000000E+00  0.0000000000000E+00  0.0000000000000E+00
340  3.3900000000000E+00  0.0000000000000E+00  0.0000000000000E+00
341  3.4000000000000E+00  0.0000000000000E+00  0.0000000000000E+00
342  3.4100000000000E+00  0.0000000000000E+00  0.0000000000000E+00
343  3.4200000000000E+00  0.0000000000000E+00  0.0000000000000E+00
344  3.4300000000000E+00  0.0000000000000E+00  0.0000000000000E+00
345  3.4400000000000E+00  0.0000000000000E+00  0.0000000000000E+00
346  3.4500000000000E+00  0.0000000000000E+00  0.0000000000000E+00
347  3.4600000000000E+00  0.0000000000000E+00  0.0000000000000E+00
348  3.4700000000000E+00  0.0000000000000E+00  0.0000000000000E+00
349  3.4800000000000E+00  0.0000000000000E+00  0.0000000000000E+00
350  3.4900000000000E+00  0.0000000000000E+00  0.0000000000000E+00
351  3.5000000000000E+00  0.0000000000000E+00  0.0000000000000E+00
352  3.5100000000000E+00  0.0000000000000E+00  0.0000000000000E+00
353  3.5200000000000E+00  0.0000000000000E+00  0.0000000000000E+00
354  3.5300000000000E+00  0.0000000000000E+00  0.0000000000000E+00
355  3.5400000000000E+00  0.0000000000000E+00  0.0000000000000E+00
356  3.5500000000000E+00  0.0000000000000E+00  0.0000000000000E+00
357  3.5600000000000E+00  0.0000000000000E+00  0.0000000000000E+00
358  3.5700000000000E+00  0.0000000000000E+00  0.0000000000000E+00
359  3.5800000000000E+00  0.0000000000000E+00  0.0000000000000E+00
360  3.5900000000000E+00  0.0000000000000E+00  0.0000000000000E+00
361  3.6000000000000E+00  0.0000000000000E+00  0.0000000000000E+00
362  3.6100000000000E+00  0.0000000000000E+00  0.0000000000000E+00
363  3.6200000000000E+00  0.0000000000000E+00  0.0000000000000E+00
364  3.6300000000000E+00  0.0000000000000E+00  0.0000000000000E+00
365  3.6400000000000E+00  0.0000000000000E+00  0.0000000000000E+00
366  3.6500000000000E+00  0.0000000000000E+00  0.0000000000000E+00
367  3.6600000000000E+00  0.0000000000000E+00  0.0000000000000E+00
368  3.6700000000000E+00  0.0000000000000E+00  0.0000000000000E+00
369  3.6800000000000E+00  0.0000000000000E+00  0.0000000000000E+00
370  3.6900000000000E+00  0.0000000000000E+00  0.0000000000000E+00
371  3.7000000000000E+00  0.0000000000000E+00  0.0000000000000E+00
372  3.7100000000000E+00  0.0000000000000E+00  0.0000000000000E+00
373  3.7200000000000E+00  0.0000000000000E+00  0.0000000000000E+00
374  3.7300000000000E+00  0.0000000000000E+00  0.0000000000000E+00
375  3.7400000000000E+00  0.0000000000000E+00  0.0000000000000E+00
376  3.7500000000000E+00  0.0000000000000E+00  0.0000000000000E+00
377  3.7600000000000E+00  0.0000000000000E+00  0.0000000000000E+00
378  3.7700000000000E+00  0.0000000000000E+00  0.0000000000000E+00
379  3.7800000000000E+00  0.0000000000000E+00  0.0000000000000E+00
380  3.7900000000000E+00  0.0000000000000E+00  0.0000000000000E+00
381  3.8000000000000E+00  0.0000000000000E+00  0.0000000000000E+00
382  3.8100000000000E+00  0.0000000000000E+00  0.0000000000000E+00
383  3.8200000000000E+00  0.0000000000000E+00  0.0000000000000E+00
384  3.8300000000000E+00  0.0000000000000E+00  0.0000000000000E+00
385  3.8400000000000E+00  0.0000000000000E+00  0.0000000000000E+00
386  3.8500000000000E+00  0.0000000000000E+00  0.0000000000000E+00
387  3.8600000000000E+00  0.0000000000000E+00  0.0000000000000E+00
388  3.8700000000000E+00  0.0000000000000E+00  0.0000000000000E+00
389  3.8800000000000E+00  0.0000000000000E+00  0.0000000000000E+00
390  3.8900000000000E+00  0.0000000000000E+00  0.0000000000000E+00
391  3.9000000000000E+00  0.0000000000000E+00  0.0000000000000E+00
392  3.9100000000000E+00  0.0000000000000E+00  0.0000000000000E+00
393  3.9200000000000E+00  0.0000000000000E+00  0.0000000000000E+00
394  3.9300000000000E+00  0.0000000000000E+00  0.0000000000000E+00
395  3.9400000000000E+00  0.0000000000000E+00  0.0000000000000E+00
396  3.9500000000000E+00  0.0000000000000E+00  0.0000000000000E+00
397  3.9600000000000E+00  0.0000000000000E+00  0.0000000000000E+00
398  3.9700000000000E+00  0.0000000000000E+00  0.0000000000000E+00
399  3.9800000000000E+00  0.0000000000000E+00  0.0000000000000E+00
400  3.9900000000000E+00  0.0000000000000E+00  0.0000000000000E+00
401  4.0000000000000E+00  0.0000000000000E+00  0.0000000000000E+00
402  4.0100000000000E+00  0.0000000000000E+00  0.0000000000000E+00
403  4.0200000000000E+00  0.0000000000000E+00  0.0000000000000E+00
404  4.0300000000000E+00  0.0000000000000E+00  0.0000000000000E+00
405  4.0400000000000E+00  0.0000000000000E+00  0.0000000000000E+00
406  4.0500000000000E+00  0.0000000000000E+00  0.0000000000000E+00
407  4.0600000000000E+00  0.0000000000000E+00  0.0000000000000E+00
408  4.0700000000000E+00  0.0000000000000E+00  0.0000000000000E+00
409  4.0800000000000E+00  0.0000000000000E+00  0.0000000000000E+00
410  4.0900000000000E+00  0.0000000000000E+00  0.0000000000000E+00
411  4.1000000000000E+00  0.0000000000000E+00  0.0000000000000E+00
412  4.1100000000000E+00  0.0000000000000E+00  0.0000000000000E+00
413  4.1200000000000E+00  0.0000000000000E+00  0.0000000000000E+00
414  4.1300000000000E+00  0.0000000000000E+00  0.0000000000000E+00
415  4.1400000000000E+00  0.0000000000000E+00  0.0000000000000E+00
416  4.1500000000000E+00  0.0000000000000E+00  0.0000000000000E+00
417  4.1600000000000E+00  0.0000000000000E+00  0.0000000000000E+00
418  4.1700000000000E+00  0.0000000000000E+00  0.0000000000000E+00
419  4.1800000000000E+00  0.0000000000000E+00  0.0000000000000E+00
420  4.1900000000000E+00  0.0000000000000E+00  0.0000000000000E+00
421  4.2000000000000E+00  0.0000000000000E+00  0.0000000000000E+00
422  4.2100000000000E+00  0.0000000000000E+00  0.0000000000000E+00
423  4.2200000000000E+00  0.0000000000000E+00  0.0000000000000E+00
424  4.2300000000000E+00  0.0000000000000E+00  0.0000000000000E+00
425  4.2400000000000E+00  0.0000000000000E+00  0.0000000000000E+00
426  4.2500000000000E+00  0.0000000000000E+00  0.0000000000000E+00
427  4.2600000000000E+00  0.0000000000000E+00  0.0000000000000E+00
428  4.2700000000000E+00  0.0000000000000E+00  0.0000000000000E+00
429  4.2800000000000E+00  0.0000000000000E+00  0.0000000000000E+00
430  4.2900000000000E+00  0.0000000000000E+00  0.0000000000000E+00
431  4.3000000000000E+00  0.0000000000000E+00  0.0000000000000E+00
432  4.3100000000000E+00  0.0000000000000E+00  0.0000000000000E+00
433  4.3200000000000E+00  0.0000000000000E+00  0.0000000000000E+00
434  4.3300000000000E+00  0.0000000000000E+00  0.0000000000000E+00
435  4.3400000000000E+00  0.0000000000000E+00  0.0000000000000E+00
436  4.3500000000000E+00  0.0000000000000E+00  0.0000000000000E+00
437  4.3600000000000E+00  0.0000000000000E+00  0.0000000000000E+00
438  4.3700000000000E+00  0.0000000000000E+00  0.0000000000000E+00
439  4.3800000000000E+00  0.0000000000000E+00  0.0000000000000E+00
440  4.3900000000000E+00  0.0000000000000E+00  0.0000000000000E+00
441  4.4000000000000E+00  0.0000000000000E+00  0.0000000000000E+00
442  4.4100000000000E+00  0.0000000000000E+00  0.0000000000000E+00
443  4.4200000000000E+00  0.0000000000000E+00  0.0000000000000E+00