Ta    ONCVPSP-3.2.3.1  r_core=   2.30810   1.86211   2.07314   1.61376
73.0000     27.0000      170501    zatom,zion,pspd
8      11   3     4   600     0    pspcod,pspxc,lmax,lloc,mmax,r2well
5.99000000  5.00000000  0.00000000    rchrg fchrg qchrg
2     2     2     2     0    nproj
1     1           extension_switch
0                         4.5794937545323E+00  9.2648567308433E-01
1  0.0000000000000E+00  4.4392267639637E-13 -3.4102668605707E-12
2  1.0000000000000E-02  4.5695110216073E-02 -1.8073409602526E-03
3  2.0000000000000E-02  9.1339140372098E-02 -3.6046978650653E-03
4  3.0000000000000E-02  1.3688106616820E-01 -5.3820563715432E-03
5  4.0000000000000E-02  1.8226997480171E-01 -7.1293417977934E-03
6  5.0000000000000E-02  2.2745512065781E-01 -8.8363895423280E-03
7  6.0000000000000E-02  2.7238598093028E-01 -1.0492916207749E-02
8  7.0000000000000E-02  3.1701231114857E-01 -1.2088491659428E-02
9  8.0000000000000E-02  3.6128420058679E-01 -1.3612512246480E-02
10  9.0000000000000E-02  4.0515212752976E-01 -1.5054175408026E-02
11  1.0000000000000E-01  4.4856701437057E-01 -1.6402455882586E-02
12  1.1000000000000E-01  4.9148028251318E-01 -1.7646083732479E-02
13  1.2000000000000E-01  5.3384390705259E-01 -1.8773524388292E-02
14  1.3000000000000E-01  5.7561047120439E-01 -1.9772960910847E-02
15  1.4000000000000E-01  6.1673322045390E-01 -2.0632278659663E-02
16  1.5000000000000E-01  6.5716611639406E-01 -2.1339052547669E-02
17  1.6000000000000E-01  6.9686389021987E-01 -2.1880537051937E-02
18  1.7000000000000E-01  7.3578209584549E-01 -2.2243659139391E-02
19  1.8000000000000E-01  7.7387716260864E-01 -2.2415014255009E-02
20  1.9000000000000E-01  8.1110644752509E-01 -2.2380865507714E-02
21  2.0000000000000E-01  8.4742828705433E-01 -2.2127146176286E-02
22  2.1000000000000E-01  8.8280204833543E-01 -2.1639465644042E-02
23  2.2000000000000E-01  9.1718817985018E-01 -2.0903118856717E-02
24  2.3000000000000E-01  9.5054826146833E-01 -1.9903099383217E-02
25  2.4000000000000E-01  9.8284505382782E-01 -1.8624116143460E-02
26  2.5000000000000E-01  1.0140425470002E+00 -1.7050613851604E-02
27  2.6000000000000E-01  1.0441060083893E+00 -1.5166797206383E-02
28  2.7000000000000E-01  1.0730020298091E+00 -1.2956658843591E-02
29  2.8000000000000E-01  1.1006985736837E+00 -1.0404011048198E-02
30  2.9000000000000E-01  1.1271650183093E+00 -7.4925212061259E-03
31  3.0000000000000E-01  1.1523722021183E+00 -4.2057509575540E-03
32  3.1000000000000E-01  1.1762924668783E+00 -5.2719899555154E-04
33  3.2000000000000E-01  1.1988996997611E+00  3.5596525647021E-03
34  3.3000000000000E-01  1.2201693742116E+00  8.0712883393117E-03
35  3.4000000000000E-01  1.2400785895426E+00  1.3024106463528E-02
36  3.5000000000000E-01  1.2586061091841E+00  1.8434362144584E-02
37  3.6000000000000E-01  1.2757323975067E+00  2.4318108128477E-02
38  3.7000000000000E-01  1.2914396551421E+00  3.0691132248095E-02
39  3.8000000000000E-01  1.3057118527170E+00  3.7568892238376E-02
40  3.9000000000000E-01  1.3185347629180E+00  4.4966448021895E-02
41  4.0000000000000E-01  1.3298959908008E+00  5.2898391685954E-02
42  4.1000000000000E-01  1.3397850022557E+00  6.1378775389292E-02
43  4.2000000000000E-01  1.3481931505414E+00  7.0421037452989E-02
44  4.3000000000000E-01  1.3551137007939E+00  8.0037926906187E-02
45  4.4000000000000E-01  1.3605418524206E+00  9.0241426772426E-02
46  4.5000000000000E-01  1.3644747592853E+00  1.0104267639683E-01
47  4.6000000000000E-01  1.3669115475904E+00  1.1245189312799E-01
48  4.7000000000000E-01  1.3678533313627E+00  1.2447829368113E-01
49  4.8000000000000E-01  1.3673032254481E+00  1.3713001552059E-01
50  4.9000000000000E-01  1.3652663559206E+00  1.5041403861034E-01
51  5.0000000000000E-01  1.3617498678136E+00  1.6433610789054E-01
52  5.1000000000000E-01  1.3567629300802E+00  1.7890065684623E-01
53  5.2000000000000E-01  1.3503167376914E+00  1.9411073254099E-01
54  5.3000000000000E-01  1.3424245107841E+00  2.0996792249384E-01
55  5.4000000000000E-01  1.3331014907707E+00  2.2647228378141E-01
56  5.5000000000000E-01  1.3223649333284E+00  2.4362227474997E-01
57  5.6000000000000E-01  1.3102340981844E+00  2.6141468972258E-01
58  5.7000000000000E-01  1.2967302356237E+00  2.7984459708568E-01
59  5.8000000000000E-01  1.2818765696433E+00  2.9890528113741E-01
60  5.9000000000000E-01  1.2656982776868E+00  3.1858818807483E-01
61  6.0000000000000E-01  1.2482224668968E+00  3.3888287649233E-01
62  6.1000000000000E-01  1.2294781468261E+00  3.5977697275476E-01
63  6.2000000000000E-01  1.2094961985599E+00  3.8125613160002E-01
64  6.3000000000000E-01  1.1883093402032E+00  4.0330400231387E-01
65  6.4000000000000E-01  1.1659520886978E+00  4.2590220080726E-01
66  6.5000000000000E-01  1.1424607179407E+00  4.4903028791068E-01
67  6.6000000000000E-01  1.1178732131831E+00  4.7266575418412E-01
68  6.7000000000000E-01  1.0922292217003E+00  4.9678401152201E-01
69  6.8000000000000E-01  1.0655699997286E+00  5.2135839181283E-01
70  6.9000000000000E-01  1.0379383556801E+00  5.4636015289065E-01
71  7.0000000000000E-01  1.0093785896512E+00  5.7175849199259E-01
72  7.1000000000000E-01  9.7993642925624E-01  5.9752056691103E-01
73  7.2000000000000E-01  9.4965896182493E-01  6.2361152500234E-01
74  7.3000000000000E-01  9.1859456301641E-01  6.4999454018640E-01
75  7.4000000000000E-01  8.8679282191324E-01  6.7663085804097E-01
76  7.5000000000000E-01  8.5430446267084E-01  7.0347984906494E-01
77  7.6000000000000E-01  8.2118126281083E-01  7.3049907015208E-01
78  7.7000000000000E-01  7.8747596825852E-01  7.5764433428420E-01
79  7.8000000000000E-01  7.5324220523815E-01  7.8486978841884E-01
80  7.9000000000000E-01  7.1853438915189E-01  8.1212799951176E-01
81  8.0000000000000E-01  6.8340763058160E-01  8.3937004857944E-01
82  8.1000000000000E-01  6.4791763856548E-01  8.6654563267073E-01
83  8.2000000000000E-01  6.1212062131415E-01  8.9360317458085E-01
84  8.3000000000000E-01  5.7607318454376E-01  9.2048994010428E-01
85  8.4000000000000E-01  5.3983222761634E-01  9.4715216258682E-01
86  8.5000000000000E-01  5.0345483768962E-01  9.7353517450066E-01
87  8.6000000000000E-01  4.6699818209100E-01  9.9958354573010E-01
88  8.7000000000000E-01  4.3051939914186E-01  1.0252412282201E+00
89  8.8000000000000E-01  3.9407548766982E-01  1.0504517066045E+00
90  8.9000000000000E-01  3.5772319545723E-01  1.0751581543972E+00
91  9.0000000000000E-01  3.2151890688488E-01  1.0993035952946E+00
92  9.1000000000000E-01  2.8551853003916E-01  1.1228310691081E+00
93  9.2000000000000E-01  2.4977738356037E-01  1.1456838018112E+00
94  9.3000000000000E-01  2.1435008351804E-01  1.1678053791597E+00
95  9.4000000000000E-01  1.7929043060686E-01  1.1891399233130E+00
96  9.5000000000000E-01  1.4465129796337E-01  1.2096322718592E+00
97  9.6000000000000E-01  1.1048451990979E-01  1.2292281586244E+00
98  9.7000000000000E-01  7.6840781936062E-02  1.2478743956216E+00
99  9.8000000000000E-01  4.3769512235216E-02  1.2655190554758E+00
100  9.9000000000000E-01  1.1318775110371E-02  1.2821116536474E+00
101  1.0000000000000E+00 -2.0464833426725E-02  1.2976033297554E+00
102  1.0100000000000E+00 -5.1536287544699E-02  1.3119470272947E+00
103  1.0200000000000E+00 -8.1852230648523E-02  1.3250976710298E+00
104  1.0300000000000E+00 -1.1137107128337E-01  1.3370123413406E+00
105  1.0400000000000E+00 -1.4005307556993E-01  1.3476504447911E+00
106  1.0500000000000E+00 -1.6786045585863E-01  1.3569738801940E+00
107  1.0600000000000E+00 -1.9475745529523E-01  1.3649471994422E+00
108  1.0700000000000E+00 -2.2071042799683E-01  1.3715377623863E+00
109  1.0800000000000E+00 -2.4568791454414E-01  1.3767158850433E+00
110  1.0900000000000E+00 -2.6966071250548E-01  1.3804549804350E+00
111  1.1000000000000E+00 -2.9260194171739E-01  1.3827316913666E+00
112  1.1100000000000E+00 -3.1448710405834E-01  1.3835260144766E+00
113  1.1200000000000E+00 -3.3529413746383E-01  1.3828214149068E+00
114  1.1300000000000E+00 -3.5500346394449E-01  1.3806049309642E+00
115  1.1400000000000E+00 -3.7359803138453E-01  1.3768672681781E+00
116  1.1500000000000E+00 -3.9106334891307E-01  1.3716028821801E+00
117  1.1600000000000E+00 -4.0738751565696E-01  1.3648100498697E+00
118  1.1700000000000E+00 -4.2256124270106E-01  1.3564909283581E+00
119  1.1800000000000E+00 -4.3657786810260E-01  1.3466516012296E+00
120  1.1900000000000E+00 -4.4943336482649E-01  1.3353021116955E+00
121  1.2000000000000E+00 -4.6112634148180E-01  1.3224564822494E+00
122  1.2100000000000E+00 -4.7165803576956E-01  1.3081327204894E+00
123  1.2200000000000E+00 -4.8103230057070E-01  1.2923528108193E+00
124  1.2300000000000E+00 -4.8925558262282E-01  1.2751426917771E+00
125  1.2400000000000E+00 -4.9633689375658E-01  1.2565322187938E+00
126  1.2500000000000E+00 -5.0228777469358E-01  1.2365551122477E+00
127  1.2600000000000E+00 -5.0712225142462E-01  1.2152488907238E+00
128  1.2700000000000E+00 -5.1085678420454E-01  1.1926547894200E+00
129  1.2800000000000E+00 -5.1351020924146E-01  1.1688176637419E+00
130  1.2900000000000E+00 -5.1510367316979E-01  1.1437858781502E+00
131  1.3000000000000E+00 -5.1566056041193E-01  1.1176111803631E+00
132  1.3100000000000E+00 -5.1520641358268E-01  1.0903485611267E+00
133  1.3200000000000E+00 -5.1376884709171E-01  1.0620560997740E+00
134  1.3300000000000E+00 -5.1137745412139E-01  1.0327947958395E+00
135  1.3400000000000E+00 -5.0806370720607E-01  1.0026283871156E+00
136  1.3500000000000E+00 -5.0386085262595E-01  9.7162315450410E-01
137  1.3600000000000E+00 -4.9880379886911E-01  9.3984771411436E-01
138  1.3700000000000E+00 -4.9292899944940E-01  9.0737279714049E-01
139  1.3800000000000E+00 -4.8627433034232E-01  8.7427101799012E-01
140  1.3900000000000E+00 -4.7887896237438E-01  8.4061663131427E-01
141  1.4000000000000E+00 -4.7078322888417E-01  8.0648527854899E-01
142  1.4100000000000E+00 -4.6202848898707E-01  7.7195372460977E-01
143  1.4200000000000E+00 -4.5265698682808E-01  7.3709958551607E-01
144  1.4300000000000E+00 -4.4271170716647E-01  7.0200104761753E-01
145  1.4400000000000E+00 -4.3223622769942E-01  6.6673657925694E-01
146  1.4500000000000E+00 -4.2127456851263E-01  6.3138463565973E-01
147  1.4600000000000E+00 -4.0987103905821E-01  5.9602335786554E-01
148  1.4700000000000E+00 -3.9807008308973E-01  5.6073026660841E-01
149  1.4800000000000E+00 -3.8591612195523E-01  5.2558195196221E-01
150  1.4900000000000E+00 -3.7345339669210E-01  4.9065375970140E-01
151  1.5000000000000E+00 -3.6072580933881E-01  4.5601947524025E-01
152  1.5100000000000E+00 -3.4777676390466E-01  4.2175100609198E-01
153  1.5200000000000E+00 -3.3464900741625E-01  3.8791806374280E-01
154  1.5300000000000E+00 -3.2138447148722E-01  3.5458784588820E-01
155  1.5400000000000E+00 -3.0802411480792E-01  3.2182471989965E-01
156  1.5500000000000E+00 -2.9460776701605E-01  2.8968990849813E-01
157  1.5600000000000E+00 -2.8117397373238E-01  2.5824117639857E-01
158  1.5700000000000E+00 -2.6775984612665E-01  2.2753252916179E-01
159  1.5800000000000E+00 -2.5440090566446E-01  1.9761389161797E-01
160  1.5900000000000E+00 -2.4113095323035E-01  1.6853086366831E-01
161  1.6000000000000E+00 -2.2798193805686E-01  1.4032447657269E-01
162  1.6100000000000E+00 -2.1498369109169E-01  1.1303046160078E-01
163  1.6200000000000E+00 -2.0216395486903E-01  8.6679553884740E-02
164  1.6300000000000E+00 -1.8954861282867E-01  6.1298517635690E-02
165  1.6400000000000E+00 -1.7716187415810E-01  3.6910903875941E-02
166  1.6500000000000E+00 -1.6502660476517E-01  1.3538261644260E-02
167  1.6600000000000E+00 -1.5316434195953E-01 -8.7997802806622E-03
168  1.6700000000000E+00 -1.4159516273084E-01 -3.0085990856832E-02
169  1.6800000000000E+00 -1.3033769280524E-01 -5.0305496843511E-02
170  1.6900000000000E+00 -1.1940908945322E-01 -6.9445842718455E-02
171  1.7000000000000E+00 -1.0882502408969E-01 -8.7497059111358E-02
172  1.7100000000000E+00 -9.8599672493184E-02 -1.0445170780793E-01
173  1.7200000000000E+00 -8.8745707379771E-02 -1.2030492354131E-01
174  1.7300000000000E+00 -7.9274295674292E-02 -1.3505444381909E-01
175  1.7400000000000E+00 -7.0195100079681E-02 -1.4870062845350E-01
176  1.7500000000000E+00 -6.1516284812386E-02 -1.6124646908491E-01
177  1.7600000000000E+00 -5.3244525617430E-02 -1.7269758842068E-01
178  1.7700000000000E+00 -4.5385023922656E-02 -1.8306222951011E-01
179  1.7800000000000E+00 -3.7941525172189E-02 -1.9235123494824E-01
180  1.7900000000000E+00 -3.0916341226201E-02 -2.0057801626425E-01
181  1.8000000000000E+00 -2.4310376762522E-02 -2.0775851363544E-01
182  1.8100000000000E+00 -1.8123159623839E-02 -2.1391114604813E-01
183  1.8200000000000E+00 -1.2352874918801E-02 -2.1905675234720E-01
184  1.8300000000000E+00 -6.9964028995226E-03 -2.2321852310979E-01
185  1.8400000000000E+00 -2.0493602840945E-03 -2.2642192411474E-01
186  1.8500000000000E+00  2.4938548664894E-03 -2.2869461113810E-01
187  1.8600000000000E+00  6.6400151775264E-03 -2.3006633715182E-01
188  1.8700000000000E+00  1.0397012735757E-02 -2.3056885153462E-01
189  1.8800000000000E+00  1.3773805100817E-02 -2.3023579244429E-01
190  1.8900000000000E+00  1.6780358488745E-02 -2.2910257218594E-01
191  1.9000000000000E+00  1.9427588498551E-02 -2.2720625644439E-01
192  1.9100000000000E+00  2.1727298494732E-02 -2.2458543763360E-01
193  1.9200000000000E+00  2.3692115874905E-02 -2.2128010289530E-01
194  1.9300000000000E+00  2.5335426487404E-02 -2.1733149736288E-01
195  1.9400000000000E+00  2.6671307329935E-02 -2.1278198298448E-01
196  1.9500000000000E+00  2.7714457872561E-02 -2.0767489371757E-01
197  1.9600000000000E+00  2.8480130124445E-02 -2.0205438735013E-01
198  1.9700000000000E+00  2.8984057758166E-02 -1.9596529470087E-01
199  1.9800000000000E+00  2.9242384490936E-02 -1.8945296664187E-01
200  1.9900000000000E+00  2.9271591959069E-02 -1.8256311950625E-01
201  2.0000000000000E+00  2.9088427326873E-02 -1.7534167944158E-01
202  2.0100000000000E+00  2.8709830887738E-02 -1.6783462629781E-01
203  2.0200000000000E+00  2.8152863808268E-02 -1.6008783743056E-01
204  2.0300000000000E+00  2.7434636388762E-02 -1.5214693225261E-01
205  2.0400000000000E+00  2.6572236898820E-02 -1.4405711771377E-01
206  2.0500000000000E+00  2.5582661345203E-02 -1.3586303551668E-01
207  2.0600000000000E+00  2.4482744352231E-02 -1.2760861150109E-01
208  2.0700000000000E+00  2.3289091265599E-02 -1.1933690747785E-01
209  2.0800000000000E+00  2.2018011935836E-02 -1.1108997654353E-01
210  2.0900000000000E+00  2.0685456051754E-02 -1.0290872162955E-01
211  2.1000000000000E+00  1.9306950528184E-02 -9.4832758427317E-02
212  2.1100000000000E+00  1.7897538973901E-02 -8.6900282780026E-02
213  2.1200000000000E+00  1.6471723345512E-02 -7.9147942805749E-02
214  2.1300000000000E+00  1.5043408287801E-02 -7.1610716895924E-02
215  2.1400000000000E+00  1.3625847852951E-02 -6.4321796928302E-02
216  2.1500000000000E+00  1.2231595199278E-02 -5.7312478070178E-02
217  2.1600000000000E+00  1.0872455209903E-02 -5.0612055062128E-02
218  2.1700000000000E+00  9.5594400031139E-03 -4.4247724938514E-02
219  2.1800000000000E+00  8.3027279950150E-03 -3.8244497715069E-02
220  2.1900000000000E+00  7.1116259703581E-03 -3.2625113813958E-02
221  2.2000000000000E+00  5.9945347665531E-03 -2.7409969638872E-02
222  2.2100000000000E+00  4.9589186207644E-03 -2.2617051434729E-02
223  2.2200000000000E+00  4.0112777728450E-03 -1.8261876494128E-02
224  2.2300000000000E+00  3.1573762640750E-03 -1.4358626266326E-02
225  2.2400000000000E+00  2.4017403940997E-03 -1.0917835188473E-02
226  2.2500000000000E+00  1.7466669400487E-03 -7.9417608056806E-03
227  2.2600000000000E+00  1.1924966291143E-03 -5.4259797502246E-03
228  2.2700000000000E+00  7.4505787447813E-04 -3.3935291743454E-03
229  2.2800000000000E+00  4.0980750826768E-04 -1.8679672207976E-03
230  2.2900000000000E+00  1.8919589612429E-04 -8.6036101168131E-04
231  2.3000000000000E+00  6.2321638298997E-05 -2.7843755215201E-04
232  2.3100000000000E+00  4.4032039025405E-06 -1.2392855563374E-05
233  2.3200000000000E+00 -1.1505728338301E-05  5.8129732424906E-05
234  2.3300000000000E+00 -6.0047810639635E-06  2.9436436580906E-05
235  2.3400000000000E+00  2.4551161919762E-06 -1.1810262640035E-05
236  2.3500000000000E+00  4.5285926608219E-06 -2.1668379936579E-05
237  2.3600000000000E+00  1.7033751390791E-06 -8.1265247095683E-06
238  2.3700000000000E+00 -5.4298914941190E-07  2.6232932882359E-06
239  2.3800000000000E+00 -7.6207700252945E-07  3.6694629890857E-06
240  2.3900000000000E+00 -1.8246893349898E-07  8.7644501091415E-07
241  2.4000000000000E+00 -2.6651153242533E-08  1.0371355260271E-07
242  2.4100000000000E+00 -2.9680511904444E-08  1.1550236887176E-07
243  2.4200000000000E+00 -3.0330347622241E-09  1.1803121894769E-08
244  2.4300000000000E+00  0.0000000000000E+00  0.0000000000000E+00
245  2.4400000000000E+00  0.0000000000000E+00  0.0000000000000E+00
246  2.4500000000000E+00  0.0000000000000E+00  0.0000000000000E+00
247  2.4600000000000E+00  0.0000000000000E+00  0.0000000000000E+00
248  2.4700000000000E+00  0.0000000000000E+00  0.0000000000000E+00
249  2.4800000000000E+00  0.0000000000000E+00  0.0000000000000E+00
250  2.4900000000000E+00  0.0000000000000E+00  0.0000000000000E+00
251  2.5000000000000E+00  0.0000000000000E+00  0.0000000000000E+00
252  2.5100000000000E+00  0.0000000000000E+00  0.0000000000000E+00
253  2.5200000000000E+00  0.0000000000000E+00  0.0000000000000E+00
254  2.5300000000000E+00  0.0000000000000E+00  0.0000000000000E+00
255  2.5400000000000E+00  0.0000000000000E+00  0.0000000000000E+00
256  2.5500000000000E+00  0.0000000000000E+00  0.0000000000000E+00
257  2.5600000000000E+00  0.0000000000000E+00  0.0000000000000E+00
258  2.5700000000000E+00  0.0000000000000E+00  0.0000000000000E+00
259  2.5800000000000E+00  0.0000000000000E+00  0.0000000000000E+00
260  2.5900000000000E+00  0.0000000000000E+00  0.0000000000000E+00
261  2.6000000000000E+00  0.0000000000000E+00  0.0000000000000E+00
262  2.6100000000000E+00  0.0000000000000E+00  0.0000000000000E+00
263  2.6200000000000E+00  0.0000000000000E+00  0.0000000000000E+00
264  2.6300000000000E+00  0.0000000000000E+00  0.0000000000000E+00
265  2.6400000000000E+00  0.0000000000000E+00  0.0000000000000E+00
266  2.6500000000000E+00  0.0000000000000E+00  0.0000000000000E+00
267  2.6600000000000E+00  0.0000000000000E+00  0.0000000000000E+00
268  2.6700000000000E+00  0.0000000000000E+00  0.0000000000000E+00
269  2.6800000000000E+00  0.0000000000000E+00  0.0000000000000E+00
270  2.6900000000000E+00  0.0000000000000E+00  0.0000000000000E+00
271  2.7000000000000E+00  0.0000000000000E+00  0.0000000000000E+00
272  2.7100000000000E+00  0.0000000000000E+00  0.0000000000000E+00
273  2.7200000000000E+00  0.0000000000000E+00  0.0000000000000E+00
274  2.7300000000000E+00  0.0000000000000E+00  0.0000000000000E+00
275  2.7400000000000E+00  0.0000000000000E+00  0.0000000000000E+00
276  2.7500000000000E+00  0.0000000000000E+00  0.0000000000000E+00
277  2.7600000000000E+00  0.0000000000000E+00  0.0000000000000E+00
278  2.7700000000000E+00  0.0000000000000E+00  0.0000000000000E+00
279  2.7800000000000E+00  0.0000000000000E+00  0.0000000000000E+00
280  2.7900000000000E+00  0.0000000000000E+00  0.0000000000000E+00
281  2.8000000000000E+00  0.0000000000000E+00  0.0000000000000E+00
282  2.8100000000000E+00  0.0000000000000E+00  0.0000000000000E+00
283  2.8200000000000E+00  0.0000000000000E+00  0.0000000000000E+00
284  2.8300000000000E+00  0.0000000000000E+00  0.0000000000000E+00
285  2.8400000000000E+00  0.0000000000000E+00  0.0000000000000E+00
286  2.8500000000000E+00  0.0000000000000E+00  0.0000000000000E+00
287  2.8600000000000E+00  0.0000000000000E+00  0.0000000000000E+00
288  2.8700000000000E+00  0.0000000000000E+00  0.0000000000000E+00
289  2.8800000000000E+00  0.0000000000000E+00  0.0000000000000E+00
290  2.8900000000000E+00  0.0000000000000E+00  0.0000000000000E+00
291  2.9000000000000E+00  0.0000000000000E+00  0.0000000000000E+00
292  2.9100000000000E+00  0.0000000000000E+00  0.0000000000000E+00
293  2.9200000000000E+00  0.0000000000000E+00  0.0000000000000E+00
294  2.9300000000000E+00  0.0000000000000E+00  0.0000000000000E+00
295  2.9400000000000E+00  0.0000000000000E+00  0.0000000000000E+00
296  2.9500000000000E+00  0.0000000000000E+00  0.0000000000000E+00
297  2.9600000000000E+00  0.0000000000000E+00  0.0000000000000E+00
298  2.9700000000000E+00  0.0000000000000E+00  0.0000000000000E+00
299  2.9800000000000E+00  0.0000000000000E+00  0.0000000000000E+00
300  2.9900000000000E+00  0.0000000000000E+00  0.0000000000000E+00
301  3.0000000000000E+00  0.0000000000000E+00  0.0000000000000E+00
302  3.0100000000000E+00  0.0000000000000E+00  0.0000000000000E+00
303  3.0200000000000E+00  0.0000000000000E+00  0.0000000000000E+00
304  3.0300000000000E+00  0.0000000000000E+00  0.0000000000000E+00
305  3.0400000000000E+00  0.0000000000000E+00  0.0000000000000E+00
306  3.0500000000000E+00  0.0000000000000E+00  0.0000000000000E+00
307  3.0600000000000E+00  0.0000000000000E+00  0.0000000000000E+00
308  3.0700000000000E+00  0.0000000000000E+00  0.0000000000000E+00
309  3.0800000000000E+00  0.0000000000000E+00  0.0000000000000E+00
310  3.0900000000000E+00  0.0000000000000E+00  0.0000000000000E+00
311  3.1000000000000E+00  0.0000000000000E+00  0.0000000000000E+00
312  3.1100000000000E+00  0.0000000000000E+00  0.0000000000000E+00
313  3.1200000000000E+00  0.0000000000000E+00  0.0000000000000E+00
314  3.1300000000000E+00  0.0000000000000E+00  0.0000000000000E+00
315  3.1400000000000E+00  0.0000000000000E+00  0.0000000000000E+00
316  3.1500000000000E+00  0.0000000000000E+00  0.0000000000000E+00
317  3.1600000000000E+00  0.0000000000000E+00  0.0000000000000E+00
318  3.1700000000000E+00  0.0000000000000E+00  0.0000000000000E+00
319  3.1800000000000E+00  0.0000000000000E+00  0.0000000000000E+00
320  3.1900000000000E+00  0.0000000000000E+00  0.0000000000000E+00
321  3.2000000000000E+00  0.0000000000000E+00  0.0000000000000E+00
322  3.2100000000000E+00  0.0000000000000E+00  0.0000000000000E+00
323  3.2200000000000E+00  0.0000000000000E+00  0.0000000000000E+00
324  3.2300000000000E+00  0.0000000000000E+00  0.0000000000000E+00
325  3.2400000000000E+00  0.0000000000000E+00  0.0000000000000E+00
326  3.2500000000000E+00  0.0000000000000E+00  0.0000000000000E+00
327  3.2600000000000E+00  0.0000000000000E+00  0.0000000000000E+00
328  3.2700000000000E+00  0.0000000000000E+00  0.0000000000000E+00
329  3.2800000000000E+00  0.0000000000000E+00  0.0000000000000E+00
330  3.2900000000000E+00  0.0000000000000E+00  0.0000000000000E+00
331  3.3000000000000E+00  0.0000000000000E+00  0.0000000000000E+00
332  3.3100000000000E+00  0.0000000000000E+00  0.0000000000000E+00
333  3.3200000000000E+00  0.0000000000000E+00  0.0000000000000E+00
334  3.3300000000000E+00  0.0000000000000E+00  0.0000000000000E+00
335  3.3400000000000E+00  0.0000000000000E+00  0.0000000000000E+00
336  3.3500000000000E+00  0.0000000000000E+00  0.0000000000000E+00
337  3.3600000000000E+00  0.0000000000000E+00  0.0000000000000E+00
338  3.3700000000000E+00  0.0000000000000E+00  0.0000000000000E+00
339  3.3800000000000E+00  0.0000000000000E+00  0.0000000000000E+00
340  3.3900000000000E+00  0.0000000000000E+00  0.0000000000000E+00
341  3.4000000000000E+00  0.0000000000000E+00  0.0000000000000E+00
342  3.4100000000000E+00  0.0000000000000E+00  0.0000000000000E+00
343  3.4200000000000E+00  0.0000000000000E+00  0.0000000000000E+00
344  3.4300000000000E+00  0.0000000000000E+00  0.0000000000000E+00
345  3.4400000000000E+00  0.0000000000000E+00  0.0000000000000E+00
346  3.4500000000000E+00  0.0000000000000E+00  0.0000000000000E+00
347  3.4600000000000E+00  0.0000000000000E+00  0.0000000000000E+00
348  3.4700000000000E+00  0.0000000000000E+00  0.0000000000000E+00
349  3.4800000000000E+00  0.0000000000000E+00  0.0000000000000E+00
350  3.4900000000000E+00  0.0000000000000E+00  0.0000000000000E+00
351  3.5000000000000E+00  0.0000000000000E+00  0.0000000000000E+00
352  3.5100000000000E+00  0.0000000000000E+00  0.0000000000000E+00
353  3.5200000000000E+00  0.0000000000000E+00  0.0000000000000E+00
354  3.5300000000000E+00  0.0000000000000E+00  0.0000000000000E+00
355  3.5400000000000E+00  0.0000000000000E+00  0.0000000000000E+00
356  3.5500000000000E+00  0.0000000000000E+00  0.0000000000000E+00
357  3.5600000000000E+00  0.0000000000000E+00  0.0000000000000E+00
358  3.5700000000000E+00  0.0000000000000E+00  0.0000000000000E+00
359  3.5800000000000E+00  0.0000000000000E+00  0.0000000000000E+00
360  3.5900000000000E+00  0.0000000000000E+00  0.0000000000000E+00
361  3.6000000000000E+00  0.0000000000000E+00  0.0000000000000E+00
362  3.6100000000000E+00  0.0000000000000E+00  0.0000000000000E+00
363  3.6200000000000E+00  0.0000000000000E+00  0.0000000000000E+00
364  3.6300000000000E+00  0.0000000000000E+00  0.0000000000000E+00
365  3.6400000000000E+00  0.0000000000000E+00  0.0000000000000E+00
366  3.6500000000000E+00  0.0000000000000E+00  0.0000000000000E+00
367  3.6600000000000E+00  0.0000000000000E+00  0.0000000000000E+00
368  3.6700000000000E+00  0.0000000000000E+00  0.0000000000000E+00
369  3.6800000000000E+00  0.0000000000000E+00  0.0000000000000E+00
370  3.6900000000000E+00  0.0000000000000E+00  0.0000000000000E+00
371  3.7000000000000E+00  0.0000000000000E+00  0.0000000000000E+00
372  3.7100000000000E+00  0.0000000000000E+00  0.0000000000000E+00
373  3.7200000000000E+00  0.0000000000000E+00  0.0000000000000E+00
374  3.7300000000000E+00  0.0000000000000E+00  0.0000000000000E+00
375  3.7400000000000E+00  0.0000000000000E+00  0.0000000000000E+00
376  3.7500000000000E+00  0.0000000000000E+00  0.0000000000000E+00
377  3.7600000000000E+00  0.0000000000000E+00  0.0000000000000E+00
378  3.7700000000000E+00  0.0000000000000E+00  0.0000000000000E+00
379  3.7800000000000E+00  0.0000000000000E+00  0.0000000000000E+00
380  3.7900000000000E+00  0.0000000000000E+00  0.0000000000000E+00
381  3.8000000000000E+00  0.0000000000000E+00  0.0000000000000E+00
382  3.8100000000000E+00  0.0000000000000E+00  0.0000000000000E+00
383  3.8200000000000E+00  0.0000000000000E+00  0.0000000000000E+00
384  3.8300000000000E+00  0.0000000000000E+00  0.0000000000000E+00
385  3.8400000000000E+00  0.0000000000000E+00  0.0000000000000E+00
386  3.8500000000000E+00  0.0000000000000E+00  0.0000000000000E+00
387  3.8600000000000E+00  0.0000000000000E+00  0.0000000000000E+00
388  3.8700000000000E+00  0.0000000000000E+00  0.0000000000000E+00
389  3.8800000000000E+00  0.0000000000000E+00  0.0000000000000E+00
390  3.8900000000000E+00  0.0000000000000E+00  0.0000000000000E+00
391  3.9000000000000E+00  0.0000000000000E+00  0.0000000000000E+00
392  3.9100000000000E+00  0.0000000000000E+00  0.0000000000000E+00
393  3.9200000000000E+00  0.0000000000000E+00  0.0000000000000E+00
394  3.9300000000000E+00  0.0000000000000E+00  0.0000000000000E+00
395  3.9400000000000E+00  0.0000000000000E+00  0.0000000000000E+00
396  3.9500000000000E+00  0.0000000000000E+00  0.0000000000000E+00
397  3.9600000000000E+00  0.0000000000000E+00  0.0000000000000E+00
398  3.9700000000000E+00  0.0000000000000E+00  0.0000000000000E+00
399  3.9800000000000E+00  0.0000000000000E+00  0.0000000000000E+00
400  3.9900000000000E+00  0.0000000000000E+00  0.0000000000000E+00
401  4.0000000000000E+00  0.0000000000000E+00  0.0000000000000E+00
402  4.0100000000000E+00  0.0000000000000E+00  0.0000000000000E+00
403  4.0200000000000E+00  0.0000000000000E+00  0.0000000000000E+00
404  4.0300000000000E+00  0.0000000000000E+00  0.0000000000000E+00
405  4.0400000000000E+00  0.0000000000000E+00  0.0000000000000E+00
406  4.0500000000000E+00  0.0000000000000E+00  0.0000000000000E+00
407  4.0600000000000E+00  0.0000000000000E+00  0.0000000000000E+00
408  4.0700000000000E+00  0.0000000000000E+00  0.0000000000000E+00
409  4.0800000000000E+00  0.0000000000000E+00  0.0000000000000E+00
410  4.0900000000000E+00  0.0000000000000E+00  0.0000000000000E+00
411  4.1000000000000E+00  0.0000000000000E+00  0.0000000000000E+00
412  4.1100000000000E+00  0.0000000000000E+00  0.0000000000000E+00
413  4.1200000000000E+00  0.0000000000000E+00  0.0000000000000E+00
414  4.1300000000000E+00  0.0000000000000E+00  0.0000000000000E+00
415  4.1400000000000E+00  0.0000000000000E+00  0.0000000000000E+00
416  4.1500000000000E+00  0.0000000000000E+00  0.0000000000000E+00
417  4.1600000000000E+00  0.0000000000000E+00  0.0000000000000E+00
418  4.1700000000000E+00  0.0000000000000E+00  0.0000000000000E+00
419  4.1800000000000E+00  0.0000000000000E+00  0.0000000000000E+00
420  4.1900000000000E+00  0.0000000000000E+00  0.0000000000000E+00
421  4.2000000000000E+00  0.0000000000000E+00  0.0000000000000E+00
422  4.2100000000000E+00  0.0000000000000E+00  0.0000000000000E+00
423  4.2200000000000E+00  0.0000000000000E+00  0.0000000000000E+00
424  4.2300000000000E+00  0.0000000000000E+00  0.0000000000000E+00
425  4.2400000000000E+00  0.0000000000000E+00  0.0000000000000E+00
426  4.2500000000000E+00  0.0000000000000E+00  0.0000000000000E+00
427  4.2600000000000E+00  0.0000000000000E+00  0.0000000000000E+00
428  4.2700000000000E+00  0.0000000000000E+00  0.0000000000000E+00
429  4.2800000000000E+00  0.0000000000000E+00  0.0000000000000E+00
430  4.2900000000000E+00  0.0000000000000E+00  0.0000000000000E+00
431  4.3000000000000E+00  0.0000000000000E+00  0.0000000000000E+00
432  4.3100000000000E+00  0.0000000000000E+00  0.0000000000000E+00
433  4.3200000000000E+00  0.0000000000000E+00  0.0000000000000E+00
434  4.3300000000000E+00  0.0000000000000E+00  0.0000000000000E+00
435  4.3400000000000E+00  0.0000000000000E+00  0.0000000000000E+00
436  4.3500000000000E+00  0.0000000000000E+00  0.0000000000000E+00
437  4.3600000000000E+00  0.0000000000000E+00  0.0000000000000E+00
438  4.3700000000000E+00  0.0000000000000E+00  0.0000000000000E+00
439  4.3800000000000E+00  0.0000000000000E+00  0.0000000000000E+00
440  4.3900000000000E+00  0.0000000000000E+00  0.0000000000000E+00
441  4.4000000000000E+00  0.0000000000000E+00  0.0000000000000E+00
442  4.4100000000000E+00  0.0000000000000E+00  0.0000000000000E+00
443  4.4200000000000E+00  0.0000000000000E+00  0.0000000000000E+00