W     ONCVPSP-3.2.3.1  r_core=   1.61105   1.61105   1.61105   2.02088
74.0000     14.0000      170501    zatom,zion,pspd
8      11   3     4   600     0    pspcod,pspxc,lmax,lloc,mmax,r2well
5.99000000  5.00000000  0.00000000    rchrg fchrg qchrg
2     2     2     2     0    nproj
1     1           extension_switch
0                         1.2992055998228E+01  1.8444105044683E+00
1  0.0000000000000E+00 -6.3610505751655E-11  3.1402119793356E-10
2  1.0000000000000E-02  5.2772720354707E-02 -2.0461566573550E-02
3  2.0000000000000E-02  1.0548415054915E-01 -4.0833276761917E-02
4  3.0000000000000E-02  1.5807307092400E-01 -6.1025816179424E-02
5  4.0000000000000E-02  2.1047840195049E-01 -8.0950947928925E-02
6  5.0000000000000E-02  2.6263927213391E-01 -1.0052203515036E-01
7  6.0000000000000E-02  3.1449508336861E-01 -1.1965454435907E-01
8  7.0000000000000E-02  3.6598557297048E-01 -1.3826652354241E-01
9  8.0000000000000E-02  4.1705087167661E-01 -1.5627904929698E-01
10  9.0000000000000E-02  4.6763155697973E-01 -1.7361663767548E-01
11  1.0000000000000E-01  5.1766870125678E-01 -1.9020761386684E-01
12  1.1000000000000E-01  5.6710391425478E-01 -2.0598443635226E-01
13  1.2000000000000E-01  6.1587937961274E-01 -2.2088397175677E-01
14  1.3000000000000E-01  6.6393788522270E-01 -2.3484771724564E-01
15  1.4000000000000E-01  7.1122284736657E-01 -2.4782196799025E-01
16  1.5000000000000E-01  7.5767832870456E-01 -2.5975792794140E-01
17  1.6000000000000E-01  8.0324905033499E-01 -2.7061176289283E-01
18  1.7000000000000E-01  8.4788039829227E-01 -2.8034459558399E-01
19  1.8000000000000E-01  8.9151842499660E-01 -2.8892244337192E-01
20  1.9000000000000E-01  9.3410984631496E-01 -2.9631609978721E-01
21  2.0000000000000E-01  9.7560203503491E-01 -3.0250096206996E-01
22  2.1000000000000E-01  1.0159430116887E+00 -3.0745680754875E-01
23  2.2000000000000E-01  1.0550814337933E+00 -3.1116752246981E-01
24  2.3000000000000E-01  1.0929665846896E+00 -3.1362078759444E-01
25  2.4000000000000E-01  1.1295483632692E+00 -3.1480772555281E-01
26  2.5000000000000E-01  1.1647772759680E+00 -3.1472251556015E-01
27  2.6000000000000E-01  1.1986044324802E+00 -3.1336198166080E-01
28  2.7000000000000E-01  1.2309815467009E+00 -3.1072516115575E-01
29  2.8000000000000E-01  1.2618609444429E+00 -3.0681286028504E-01
30  2.9000000000000E-01  1.2911955794857E+00 -3.0162720456803E-01
31  3.0000000000000E-01  1.3189390595065E+00 -2.9517119144783E-01
32  3.1000000000000E-01  1.3450456834084E+00 -2.8744825303425E-01
33  3.2000000000000E-01  1.3694704915057E+00 -2.7846183678854E-01
34  3.3000000000000E-01  1.3921693299384E+00 -2.6821501193878E-01
35  3.4000000000000E-01  1.4130989305822E+00 -2.5671010925581E-01
36  3.5000000000000E-01  1.4322170075823E+00 -2.4394840155322E-01
37  3.6000000000000E-01  1.4494823714804E+00 -2.2992983190236E-01
38  3.7000000000000E-01  1.4648550617167E+00 -2.1465279607555E-01
39  3.8000000000000E-01  1.4782964980836E+00 -1.9811398514993E-01
40  3.9000000000000E-01  1.4897696514714E+00 -1.8030829352488E-01
41  4.0000000000000E-01  1.4992392340006E+00 -1.6122879683398E-01
42  4.1000000000000E-01  1.5066719083616E+00 -1.4086680337211E-01
43  4.2000000000000E-01  1.5120365159010E+00 -1.1921198172123E-01
44  4.3000000000000E-01  1.5153043226928E+00 -9.6252566250263E-02
45  4.4000000000000E-01  1.5164492825286E+00 -7.1975641098294E-02
46  4.5000000000000E-01  1.5154483154460E+00 -4.6367502137095E-02
47  4.6000000000000E-01  1.5122816000986E+00 -1.9414095259451E-02
48  4.7000000000000E-01  1.5069328779575E+00  8.8984718289370E-03
49  4.8000000000000E-01  1.4993897670249E+00  3.8583348313164E-02
50  4.9000000000000E-01  1.4896440824431E+00  6.9652294636699E-02
51  5.0000000000000E-01  1.4776921610963E+00  1.0211497884597E-01
52  5.1000000000000E-01  1.4635351870376E+00  1.3597822233215E-01
53  5.2000000000000E-01  1.4471795143301E+00  1.7124520344261E-01
54  5.3000000000000E-01  1.4286369836767E+00  2.0791462841576E-01
55  5.4000000000000E-01  1.4079252290263E+00  2.4597987999163E-01
56  5.5000000000000E-01  1.3850679701972E+00  2.8542815484568E-01
57  5.6000000000000E-01  1.3600952874463E+00  3.2623960167817E-01
58  5.7000000000000E-01  1.3330438738462E+00  3.6838647234750E-01
59  5.8000000000000E-01  1.3039572613067E+00  4.1183229885389E-01
60  5.9000000000000E-01  1.2728860161041E+00  4.5653110924968E-01
61  6.0000000000000E-01  1.2398878998550E+00  5.0242669566360E-01
62  6.1000000000000E-01  1.2050279919949E+00  5.4945194757326E-01
63  6.2000000000000E-01  1.1683787700023E+00  5.9752826323651E-01
64  6.3000000000000E-01  1.1300201438365E+00  6.4656505179605E-01
65  6.4000000000000E-01  1.0900394413391E+00  6.9645933799782E-01
66  6.5000000000000E-01  1.0485313416824E+00  7.4709548072249E-01
67  6.6000000000000E-01  1.0055977543295E+00  7.9834501561017E-01
68  6.7000000000000E-01  9.6134764140160E-01  8.5006663097881E-01
69  6.8000000000000E-01  9.1589678181601E-01  9.0210628500278E-01
70  6.9000000000000E-01  8.6936747607687E-01  9.5429747073107E-01
71  7.0000000000000E-01  8.2188819114565E-01  1.0064616340081E+00
72  7.1000000000000E-01  7.7359314539968E-01  1.0584087477199E+00
73  7.2000000000000E-01  7.2462183429033E-01  1.1099380440532E+00
74  7.3000000000000E-01  6.7511849793730E-01  1.1608389046215E+00
75  7.4000000000000E-01  6.2523153253239E-01  1.2108919064247E+00
76  7.5000000000000E-01  5.7511284806777E-01  1.2598700196734E+00
77  7.6000000000000E-01  5.2491717554483E-01  1.3075399515507E+00
78  7.7000000000000E-01  4.7480132745198E-01  1.3536636280320E+00
79  7.8000000000000E-01  4.2492341591554E-01  1.3979998039537E+00
80  7.9000000000000E-01  3.7544203351718E-01  1.4403057896503E+00
81  8.0000000000000E-01  3.2651540233409E-01  1.4803392806677E+00
82  8.1000000000000E-01  2.7830049727559E-01  1.5178602753720E+00
83  8.2000000000000E-01  2.3095215026460E-01  1.5526330636843E+00
84  8.3000000000000E-01  1.8462214223294E-01  1.5844282687491E+00
85  8.4000000000000E-01  1.3945829025945E-01  1.6130249220745E+00
86  8.5000000000000E-01  9.5603537475223E-02  1.6382125516106E+00
87  8.6000000000000E-01  5.3195053583731E-02  1.6597932613600E+00
88  8.7000000000000E-01  1.2363353992210E-02  1.6775837804674E+00
89  8.8000000000000E-01 -2.6768554380547E-02  1.6914174593244E+00
90  8.9000000000000E-01 -6.4085992567985E-02  1.7011461900544E+00
91  9.0000000000000E-01 -9.9483386336679E-02  1.7066422288362E+00
92  9.1000000000000E-01 -1.3286499251255E-01  1.7077998978679E+00
93  9.2000000000000E-01 -1.6414556734863E-01  1.7045371453823E+00
94  9.3000000000000E-01 -1.9325096978230E-01  1.6967969429920E+00
95  9.4000000000000E-01 -2.2011869286769E-01  1.6845485007736E+00
96  9.5000000000000E-01 -2.4469831717665E-01  1.6677882818553E+00
97  9.6000000000000E-01 -2.6695188055499E-01  1.6465407998902E+00
98  9.7000000000000E-01 -2.8685415927926E-01  1.6208591846252E+00
99  9.8000000000000E-01 -3.0439285638025E-01  1.5908255028028E+00
100  9.9000000000000E-01 -3.1956869367959E-01  1.5565508238503E+00
101  1.0000000000000E+00 -3.3239540491525E-01  1.5181750221867E+00
102  1.0100000000000E+00 -3.4289962819665E-01  1.4758663104767E+00
103  1.0200000000000E+00 -3.5112069695637E-01  1.4298205008529E+00
104  1.0300000000000E+00 -3.5711032943020E-01  1.3802599936508E+00
105  1.0400000000000E+00 -3.6093221770157E-01  1.3274324961487E+00
106  1.0500000000000E+00 -3.6266151824011E-01  1.2716094764388E+00
107  1.0600000000000E+00 -3.6238424679918E-01  1.2130843603172E+00
108  1.0700000000000E+00 -3.6019658146288E-01  1.1521704818266E+00
109  1.0800000000000E+00 -3.5620407847936E-01  1.0891988006009E+00
110  1.0900000000000E+00 -3.5052080635956E-01  1.0245154016672E+00
111  1.1000000000000E+00 -3.4326840454434E-01  9.5847879582146E-01
112  1.1100000000000E+00 -3.3457507361649E-01  8.9145704070570E-01
113  1.1200000000000E+00 -3.2457450474979E-01  8.2382470485279E-01
114  1.1300000000000E+00 -3.1340475655661E-01  7.5595969837181E-01
115  1.1400000000000E+00 -3.0120708814102E-01  6.8823999587463E-01
116  1.1500000000000E+00 -2.8812475745819E-01  6.2104027812235E-01
117  1.1600000000000E+00 -2.7430179442665E-01  5.5472851989575E-01
118  1.1700000000000E+00 -2.5988175842371E-01  4.8966255214029E-01
119  1.1800000000000E+00 -2.4500648995949E-01  4.2618662690962E-01
120  1.1900000000000E+00 -2.2981486625245E-01  3.6462801339706E-01
121  1.2000000000000E+00 -2.1444157033149E-01  3.0529365302457E-01
122  1.2100000000000E+00 -1.9901588316901E-01  2.4846690116482E-01
123  1.2200000000000E+00 -1.8366050664152E-01  1.9440437594641E-01
124  1.2300000000000E+00 -1.6849042556140E-01  1.4333293948711E-01
125  1.2400000000000E+00 -1.5361186302445E-01  9.5447028077827E-02
126  1.2500000000000E+00 -1.3912117111525E-01  5.0905648010936E-02
127  1.2600000000000E+00 -1.2510381698630E-01  9.8296731556437E-03
128  1.2700000000000E+00 -1.1163476137099E-01 -2.7694596827799E-02
129  1.2800000000000E+00 -9.8779089214820E-02 -6.1611362987981E-02
130  1.2900000000000E+00 -8.6592848507134E-02 -9.1890842515576E-02
131  1.3000000000000E+00 -7.5122728062024E-02 -1.1853034068027E-01
132  1.3100000000000E+00 -6.4406009393750E-02 -1.4155422161396E-01
133  1.3200000000000E+00 -5.4470628663917E-02 -1.6101347473902E-01
134  1.3300000000000E+00 -4.5335306514962E-02 -1.7698512002038E-01
135  1.3400000000000E+00 -3.7009759702755E-02 -1.8957136804692E-01
136  1.3500000000000E+00 -2.9494997550955E-02 -1.9889851983162E-01
137  1.3600000000000E+00 -2.2783693835275E-02 -2.0511564340155E-01
138  1.3700000000000E+00 -1.6860633610137E-02 -2.0839302406740E-01
139  1.3800000000000E+00 -1.1703234116837E-02 -2.0892038781761E-01
140  1.3900000000000E+00 -7.2821274895914E-03 -2.0690494276689E-01
141  1.4000000000000E+00 -3.5618004526524E-03 -2.0256925163459E-01
142  1.4100000000000E+00 -5.0128841718872E-04 -1.9614894022373E-01
143  1.4200000000000E+00  1.9450868058465E-03 -1.8789027791715E-01
144  1.4300000000000E+00  3.8269423513140E-03 -1.7804765061649E-01
145  1.4400000000000E+00  5.1970306207386E-03 -1.6688095043337E-01
146  1.4500000000000E+00  6.1104153214496E-03 -1.5465290956135E-01
147  1.4600000000000E+00  6.6236353796869E-03 -1.4162640368285E-01
148  1.4700000000000E+00  6.7938658670625E-03 -1.2806175350175E-01
149  1.4800000000000E+00  6.6780843395690E-03 -1.1421405058709E-01
150  1.4900000000000E+00  6.3322517003981E-03 -1.0033053601572E-01
151  1.5000000000000E+00  5.8105154743390E-03 -8.6648056488813E-02
152  1.5100000000000E+00  5.1644449854023E-03 -7.3390627558846E-02
153  1.5200000000000E+00  4.4423042134264E-03 -6.0767121930667E-02
154  1.5300000000000E+00  3.6883738700404E-03 -4.8969119538473E-02
155  1.5400000000000E+00  2.9423258474021E-03 -3.8168928760498E-02
156  1.5500000000000E+00  2.2386559407374E-03 -2.8517795849283E-02
157  1.5600000000000E+00  1.6065841239596E-03 -2.0149129542840E-02
158  1.5700000000000E+00  1.0679288665357E-03 -1.3156758442005E-02
159  1.5800000000000E+00  6.3585217781053E-04 -7.5889452662131E-03
160  1.5900000000000E+00  3.2904267795858E-04 -3.5937815677434E-03
161  1.6000000000000E+00  1.5888053859187E-04 -1.2714029594625E-03
162  1.6100000000000E+00  8.0705256007890E-05 -2.5725251391602E-04
163  1.6200000000000E+00  3.1536833868619E-05  2.3950526659560E-05
164  1.6300000000000E+00  7.9436163713848E-07  2.4419428090606E-06
165  1.6400000000000E+00 -4.6774960185476E-06 -2.1977997481760E-05
166  1.6500000000000E+00  1.2488759215146E-08  2.5055274650106E-08
167  1.6600000000000E+00  1.1926680292760E-06  3.0703487912147E-06
168  1.6700000000000E+00 -1.0083409235234E-08  2.7290650643055E-08
169  1.6800000000000E+00 -2.1206570903500E-07  5.7395381300433E-07
170  1.6900000000000E+00  0.0000000000000E+00  0.0000000000000E+00
171  1.7000000000000E+00  0.0000000000000E+00  0.0000000000000E+00
172  1.7100000000000E+00  0.0000000000000E+00  0.0000000000000E+00
173  1.7200000000000E+00  0.0000000000000E+00  0.0000000000000E+00
174  1.7300000000000E+00  0.0000000000000E+00  0.0000000000000E+00
175  1.7400000000000E+00  0.0000000000000E+00  0.0000000000000E+00
176  1.7500000000000E+00  0.0000000000000E+00  0.0000000000000E+00
177  1.7600000000000E+00  0.0000000000000E+00  0.0000000000000E+00
178  1.7700000000000E+00  0.0000000000000E+00  0.0000000000000E+00
179  1.7800000000000E+00  0.0000000000000E+00  0.0000000000000E+00
180  1.7900000000000E+00  0.0000000000000E+00  0.0000000000000E+00
181  1.8000000000000E+00  0.0000000000000E+00  0.0000000000000E+00
182  1.8100000000000E+00  0.0000000000000E+00  0.0000000000000E+00
183  1.8200000000000E+00  0.0000000000000E+00  0.0000000000000E+00
184  1.8300000000000E+00  0.0000000000000E+00  0.0000000000000E+00
185  1.8400000000000E+00  0.0000000000000E+00  0.0000000000000E+00
186  1.8500000000000E+00  0.0000000000000E+00  0.0000000000000E+00
187  1.8600000000000E+00  0.0000000000000E+00  0.0000000000000E+00
188  1.8700000000000E+00  0.0000000000000E+00  0.0000000000000E+00
189  1.8800000000000E+00  0.0000000000000E+00  0.0000000000000E+00
190  1.8900000000000E+00  0.0000000000000E+00  0.0000000000000E+00
191  1.9000000000000E+00  0.0000000000000E+00  0.0000000000000E+00
192  1.9100000000000E+00  0.0000000000000E+00  0.0000000000000E+00
193  1.9200000000000E+00  0.0000000000000E+00  0.0000000000000E+00
194  1.9300000000000E+00  0.0000000000000E+00  0.0000000000000E+00
195  1.9400000000000E+00  0.0000000000000E+00  0.0000000000000E+00
196  1.9500000000000E+00  0.0000000000000E+00  0.0000000000000E+00
197  1.9600000000000E+00  0.0000000000000E+00  0.0000000000000E+00
198  1.9700000000000E+00  0.0000000000000E+00  0.0000000000000E+00
199  1.9800000000000E+00  0.0000000000000E+00  0.0000000000000E+00
200  1.9900000000000E+00  0.0000000000000E+00  0.0000000000000E+00
201  2.0000000000000E+00  0.0000000000000E+00  0.0000000000000E+00
202  2.0100000000000E+00  0.0000000000000E+00  0.0000000000000E+00
203  2.0200000000000E+00  0.0000000000000E+00  0.0000000000000E+00
204  2.0300000000000E+00  0.0000000000000E+00  0.0000000000000E+00
205  2.0400000000000E+00  0.0000000000000E+00  0.0000000000000E+00
206  2.0500000000000E+00  0.0000000000000E+00  0.0000000000000E+00
207  2.0600000000000E+00  0.0000000000000E+00  0.0000000000000E+00
208  2.0700000000000E+00  0.0000000000000E+00  0.0000000000000E+00
209  2.0800000000000E+00  0.0000000000000E+00  0.0000000000000E+00
210  2.0900000000000E+00  0.0000000000000E+00  0.0000000000000E+00
211  2.1000000000000E+00  0.0000000000000E+00  0.0000000000000E+00
212  2.1100000000000E+00  0.0000000000000E+00  0.0000000000000E+00
213  2.1200000000000E+00  0.0000000000000E+00  0.0000000000000E+00
214  2.1300000000000E+00  0.0000000000000E+00  0.0000000000000E+00
215  2.1400000000000E+00  0.0000000000000E+00  0.0000000000000E+00
216  2.1500000000000E+00  0.0000000000000E+00  0.0000000000000E+00
217  2.1600000000000E+00  0.0000000000000E+00  0.0000000000000E+00
218  2.1700000000000E+00  0.0000000000000E+00  0.0000000000000E+00
219  2.1800000000000E+00  0.0000000000000E+00  0.0000000000000E+00
220  2.1900000000000E+00  0.0000000000000E+00  0.0000000000000E+00
221  2.2000000000000E+00  0.0000000000000E+00  0.0000000000000E+00
222  2.2100000000000E+00  0.0000000000000E+00  0.0000000000000E+00
223  2.2200000000000E+00  0.0000000000000E+00  0.0000000000000E+00
224  2.2300000000000E+00  0.0000000000000E+00  0.0000000000000E+00
225  2.2400000000000E+00  0.0000000000000E+00  0.0000000000000E+00
226  2.2500000000000E+00  0.0000000000000E+00  0.0000000000000E+00
227  2.2600000000000E+00  0.0000000000000E+00  0.0000000000000E+00
228  2.2700000000000E+00  0.0000000000000E+00  0.0000000000000E+00
229  2.2800000000000E+00  0.0000000000000E+00  0.0000000000000E+00
230  2.2900000000000E+00  0.0000000000000E+00  0.0000000000000E+00
231  2.3000000000000E+00  0.0000000000000E+00  0.0000000000000E+00
232  2.3100000000000E+00  0.0000000000000E+00  0.0000000000000E+00
233  2.3200000000000E+00  0.0000000000000E+00  0.0000000000000E+00
234  2.3300000000000E+00  0.0000000000000E+00  0.0000000000000E+00
235  2.3400000000000E+00  0.0000000000000E+00  0.0000000000000E+00
236  2.3500000000000E+00  0.0000000000000E+00  0.0000000000000E+00
237  2.3600000000000E+00  0.0000000000000E+00  0.0000000000000E+00
238  2.3700000000000E+00  0.0000000000000E+00  0.0000000000000E+00
239  2.3800000000000E+00  0.0000000000000E+00  0.0000000000000E+00
240  2.3900000000000E+00  0.0000000000000E+00  0.0000000000000E+00
241  2.4000000000000E+00  0.0000000000000E+00  0.0000000000000E+00
242  2.4100000000000E+00  0.0000000000000E+00  0.0000000000000E+00
243  2.4200000000000E+00  0.0000000000000E+00  0.0000000000000E+00
244  2.4300000000000E+00  0.0000000000000E+00  0.0000000000000E+00
245  2.4400000000000E+00  0.0000000000000E+00  0.0000000000000E+00
246  2.4500000000000E+00  0.0000000000000E+00  0.0000000000000E+00
247  2.4600000000000E+00  0.0000000000000E+00  0.0000000000000E+00
248  2.4700000000000E+00  0.0000000000000E+00  0.0000000000000E+00
249  2.4800000000000E+00  0.0000000000000E+00  0.0000000000000E+00
250  2.4900000000000E+00  0.0000000000000E+00  0.0000000000000E+00
251  2.5000000000000E+00  0.0000000000000E+00  0.0000000000000E+00
252  2.5100000000000E+00  0.0000000000000E+00  0.0000000000000E+00
253  2.5200000000000E+00  0.0000000000000E+00  0.0000000000000E+00
254  2.5300000000000E+00  0.0000000000000E+00  0.0000000000000E+00
255  2.5400000000000E+00  0.0000000000000E+00  0.0000000000000E+00
256  2.5500000000000E+00  0.0000000000000E+00  0.0000000000000E+00
257  2.5600000000000E+00  0.0000000000000E+00  0.0000000000000E+00
258  2.5700000000000E+00  0.0000000000000E+00  0.0000000000000E+00
259  2.5800000000000E+00  0.0000000000000E+00  0.0000000000000E+00
260  2.5900000000000E+00  0.0000000000000E+00  0.0000000000000E+00
261  2.6000000000000E+00  0.0000000000000E+00  0.0000000000000E+00
262  2.6100000000000E+00  0.0000000000000E+00  0.0000000000000E+00
263  2.6200000000000E+00  0.0000000000000E+00  0.0000000000000E+00
264  2.6300000000000E+00  0.0000000000000E+00  0.0000000000000E+00
265  2.6400000000000E+00  0.0000000000000E+00  0.0000000000000E+00
266  2.6500000000000E+00  0.0000000000000E+00  0.0000000000000E+00
267  2.6600000000000E+00  0.0000000000000E+00  0.0000000000000E+00
268  2.6700000000000E+00  0.0000000000000E+00  0.0000000000000E+00
269  2.6800000000000E+00  0.0000000000000E+00  0.0000000000000E+00
270  2.6900000000000E+00  0.0000000000000E+00  0.0000000000000E+00
271  2.7000000000000E+00  0.0000000000000E+00  0.0000000000000E+00
272  2.7100000000000E+00  0.0000000000000E+00  0.0000000000000E+00
273  2.7200000000000E+00  0.0000000000000E+00  0.0000000000000E+00
274  2.7300000000000E+00  0.0000000000000E+00  0.0000000000000E+00
275  2.7400000000000E+00  0.0000000000000E+00  0.0000000000000E+00
276  2.7500000000000E+00  0.0000000000000E+00  0.0000000000000E+00
277  2.7600000000000E+00  0.0000000000000E+00  0.0000000000000E+00
278  2.7700000000000E+00  0.0000000000000E+00  0.0000000000000E+00
279  2.7800000000000E+00  0.0000000000000E+00  0.0000000000000E+00
280  2.7900000000000E+00  0.0000000000000E+00  0.0000000000000E+00
281  2.8000000000000E+00  0.0000000000000E+00  0.0000000000000E+00
282  2.8100000000000E+00  0.0000000000000E+00  0.0000000000000E+00
283  2.8200000000000E+00  0.0000000000000E+00  0.0000000000000E+00
284  2.8300000000000E+00  0.0000000000000E+00  0.0000000000000E+00
285  2.8400000000000E+00  0.0000000000000E+00  0.0000000000000E+00
286  2.8500000000000E+00  0.0000000000000E+00  0.0000000000000E+00
287  2.8600000000000E+00  0.0000000000000E+00  0.0000000000000E+00
288  2.8700000000000E+00  0.0000000000000E+00  0.0000000000000E+00
289  2.8800000000000E+00  0.0000000000000E+00  0.0000000000000E+00
290  2.8900000000000E+00  0.0000000000000E+00  0.0000000000000E+00
291  2.9000000000000E+00  0.0000000000000E+00  0.0000000000000E+00
292  2.9100000000000E+00  0.0000000000000E+00  0.0000000000000E+00
293  2.9200000000000E+00  0.0000000000000E+00  0.0000000000000E+00
294  2.9300000000000E+00  0.0000000000000E+00  0.0000000000000E+00
295  2.9400000000000E+00  0.0000000000000E+00  0.0000000000000E+00
296  2.9500000000000E+00  0.0000000000000E+00  0.0000000000000E+00
297  2.9600000000000E+00  0.0000000000000E+00  0.0000000000000E+00
298  2.9700000000000E+00  0.0000000000000E+00  0.0000000000000E+00
299  2.9800000000000E+00  0.0000000000000E+00  0.0000000000000E+00
300  2.9900000000000E+00  0.0000000000000E+00  0.0000000000000E+00
301  3.0000000000000E+00  0.0000000000000E+00  0.0000000000000E+00
302  3.0100000000000E+00  0.0000000000000E+00  0.0000000000000E+00
303  3.0200000000000E+00  0.0000000000000E+00  0.0000000000000E+00
304  3.0300000000000E+00  0.0000000000000E+00  0.0000000000000E+00
305  3.0400000000000E+00  0.0000000000000E+00  0.0000000000000E+00
306  3.0500000000000E+00  0.0000000000000E+00  0.0000000000000E+00
307  3.0600000000000E+00  0.0000000000000E+00  0.0000000000000E+00
308  3.0700000000000E+00  0.0000000000000E+00  0.0000000000000E+00
309  3.0800000000000E+00  0.0000000000000E+00  0.0000000000000E+00
310  3.0900000000000E+00  0.0000000000000E+00  0.0000000000000E+00
311  3.1000000000000E+00  0.0000000000000E+00  0.0000000000000E+00
312  3.1100000000000E+00  0.0000000000000E+00  0.0000000000000E+00
313  3.1200000000000E+00  0.0000000000000E+00  0.0000000000000E+00
314  3.1300000000000E+00  0.0000000000000E+00  0.0000000000000E+00
315  3.1400000000000E+00  0.0000000000000E+00  0.0000000000000E+00
316  3.1500000000000E+00  0.0000000000000E+00  0.0000000000000E+00
317  3.1600000000000E+00  0.0000000000000E+00  0.0000000000000E+00
318  3.1700000000000E+00  0.0000000000000E+00  0.0000000000000E+00
319  3.1800000000000E+00  0.0000000000000E+00  0.0000000000000E+00
320  3.1900000000000E+00  0.0000000000000E+00  0.0000000000000E+00
321  3.2000000000000E+00  0.0000000000000E+00  0.0000000000000E+00
322  3.2100000000000E+00  0.0000000000000E+00  0.0000000000000E+00
323  3.2200000000000E+00  0.0000000000000E+00  0.0000000000000E+00
324  3.2300000000000E+00  0.0000000000000E+00  0.0000000000000E+00
325  3.2400000000000E+00  0.0000000000000E+00  0.0000000000000E+00
326  3.2500000000000E+00  0.0000000000000E+00  0.0000000000000E+00
327  3.2600000000000E+00  0.0000000000000E+00  0.0000000000000E+00
328  3.2700000000000E+00  0.0000000000000E+00  0.0000000000000E+00
329  3.2800000000000E+00  0.0000000000000E+00  0.0000000000000E+00
330  3.2900000000000E+00  0.0000000000000E+00  0.0000000000000E+00
331  3.3000000000000E+00  0.0000000000000E+00  0.0000000000000E+00
332  3.3100000000000E+00  0.0000000000000E+00  0.0000000000000E+00
333  3.3200000000000E+00  0.0000000000000E+00  0.0000000000000E+00
334  3.3300000000000E+00  0.0000000000000E+00  0.0000000000000E+00
335  3.3400000000000E+00  0.0000000000000E+00  0.0000000000000E+00
336  3.3500000000000E+00  0.0000000000000E+00  0.0000000000000E+00
337  3.3600000000000E+00  0.0000000000000E+00  0.0000000000000E+00
338  3.3700000000000E+00  0.0000000000000E+00  0.0000000000000E+00
339  3.3800000000000E+00  0.0000000000000E+00  0.0000000000000E+00
340  3.3900000000000E+00  0.0000000000000E+00  0.0000000000000E+00
341  3.4000000000000E+00  0.0000000000000E+00  0.0000000000000E+00
342  3.4100000000000E+00  0.0000000000000E+00  0.0000000000000E+00
343  3.4200000000000E+00  0.0000000000000E+00  0.0000000000000E+00
344  3.4300000000000E+00  0.0000000000000E+00  0.0000000000000E+00
345  3.4400000000000E+00  0.0000000000000E+00  0.0000000000000E+00
346  3.4500000000000E+00  0.0000000000000E+00  0.0000000000000E+00
347  3.4600000000000E+00  0.0000000000000E+00  0.0000000000000E+00
348  3.4700000000000E+00  0.0000000000000E+00  0.0000000000000E+00
349  3.4800000000000E+00  0.0000000000000E+00  0.0000000000000E+00
350  3.4900000000000E+00  0.0000000000000E+00  0.0000000000000E+00
351  3.5000000000000E+00  0.0000000000000E+00  0.0000000000000E+00
352  3.5100000000000E+00  0.0000000000000E+00  0.0000000000000E+00
353  3.5200000000000E+00  0.0000000000000E+00  0.0000000000000E+00
354  3.5300000000000E+00  0.0000000000000E+00  0.0000000000000E+00
355  3.5400000000000E+00  0.0000000000000E+00  0.0000000000000E+00
356  3.5500000000000E+00  0.0000000000000E+00  0.0000000000000E+00
357  3.5600000000000E+00  0.0000000000000E+00  0.0000000000000E+00
358  3.5700000000000E+00  0.0000000000000E+00  0.0000000000000E+00
359  3.5800000000000E+00  0.0000000000000E+00  0.0000000000000E+00
360  3.5900000000000E+00  0.0000000000000E+00  0.0000000000000E+00
361  3.6000000000000E+00  0.0000000000000E+00  0.0000000000000E+00
362  3.6100000000000E+00  0.0000000000000E+00  0.0000000000000E+00
363  3.6200000000000E+00  0.0000000000000E+00  0.0000000000000E+00
364  3.6300000000000E+00  0.0000000000000E+00  0.0000000000000E+00
365  3.6400000000000E+00  0.0000000000000E+00  0.0000000000000E+00
366  3.6500000000000E+00  0.0000000000000E+00  0.0000000000000E+00
367  3.6600000000000E+00  0.0000000000000E+00  0.0000000000000E+00
368  3.6700000000000E+00  0.0000000000000E+00  0.0000000000000E+00
369  3.6800000000000E+00  0.0000000000000E+00  0.0000000000000E+00
370  3.6900000000000E+00  0.0000000000000E+00  0.0000000000000E+00
371  3.7000000000000E+00  0.0000000000000E+00  0.0000000000000E+00
372  3.7100000000000E+00  0.0000000000000E+00  0.0000000000000E+00
373  3.7200000000000E+00  0.0000000000000E+00  0.0000000000000E+00
374  3.7300000000000E+00  0.0000000000000E+00  0.0000000000000E+00
375  3.7400000000000E+00  0.0000000000000E+00  0.0000000000000E+00
376  3.7500000000000E+00  0.0000000000000E+00  0.0000000000000E+00
377  3.7600000000000E+00  0.0000000000000E+00  0.0000000000000E+00
378  3.7700000000000E+00  0.0000000000000E+00  0.0000000000000E+00
379  3.7800000000000E+00  0.0000000000000E+00  0.0000000000000E+00
380  3.7900000000000E+00  0.0000000000000E+00  0.0000000000000E+00
381  3.8000000000000E+00  0.0000000000000E+00  0.0000000000000E+00
382  3.8100000000000E+00  0.0000000000000E+00  0.0000000000000E+00
383  3.8200000000000E+00  0.0000000000000E+00  0.0000000000000E+00
384  3.8300000000000E+00  0.0000000000000E+00  0.0000000000000E+00
385  3.8400000000000E+00  0.0000000000000E+00  0.0000000000000E+00
386  3.8500000000000E+00  0.0000000000000E+00  0.0000000000000E+00
387  3.8600000000000E+00  0.0000000000000E+00  0.0000000000000E+00
388  3.8700000000000E+00  0.0000000000000E+00  0.0000000000000E+00
389  3.8800000000000E+00  0.0000000000000E+00  0.0000000000000E+00
390  3.8900000000000E+00  0.0000000000000E+00  0.0000000000000E+00
391  3.9000000000000E+00  0.0000000000000E+00  0.0000000000000E+00
392  3.9100000000000E+00  0.0000000000000E+00  0.0000000000000E+00
393  3.9200000000000E+00  0.0000000000000E+00  0.0000000000000E+00
394  3.9300000000000E+00  0.0000000000000E+00  0.0000000000000E+00
395  3.9400000000000E+00  0.0000000000000E+00  0.0000000000000E+00
396  3.9500000000000E+00  0.0000000000000E+00  0.0000000000000E+00
397  3.9600000000000E+00  0.0000000000000E+00  0.0000000000000E+00
398  3.9700000000000E+00  0.0000000000000E+00  0.0000000000000E+00
399  3.9800000000000E+00  0.0000000000000E+00  0.0000000000000E+00
400  3.9900000000000E+00  0.0000000000000E+00  0.0000000000000E+00
401  4.0000000000000E+00  0.0000000000000E+00  0.0000000000000E+00
402  4.0100000000000E+00  0.0000000000000E+00  0.0000000000000E+00
403  4.0200000000000E+00  0.0000000000000E+00  0.0000000000000E+00
404  4.0300000000000E+00  0.0000000000000E+00  0.0000000000000E+00
405  4.0400000000000E+00  0.0000000000000E+00  0.0000000000000E+00
406  4.0500000000000E+00  0.0000000000000E+00  0.0000000000000E+00
407  4.0600000000000E+00  0.0000000000000E+00  0.0000000000000E+00
408  4.0700000000000E+00  0.0000000000000E+00  0.0000000000000E+00
409  4.0800000000000E+00  0.0000000000000E+00  0.0000000000000E+00
410  4.0900000000000E+00  0.0000000000000E+00  0.0000000000000E+00
411  4.1000000000000E+00  0.0000000000000E+00  0.0000000000000E+00
412  4.1100000000000E+00  0.0000000000000E+00  0.0000000000000E+00
413  4.1200000000000E+00  0.0000000000000E+00  0.0000000000000E+00
414  4.1300000000000E+00  0.0000000000000E+00  0.0000000000000E+00
415  4.1400000000000E+00  0.0000000000000E+00  0.0000000000000E+00
416  4.1500000000000E+00  0.0000000000000E+00  0.0000000000000E+00
417  4.1600000000000E+00  0.0000000000000E+00  0.0000000000000E+00
418  4.1700000000000E+00  0.0000000000000E+00  0.0000000000000E+00
419  4.1800000000000E+00  0.0000000000000E+00  0.0000000000000E+00
420  4.1900000000000E+00  0.0000000000000E+00  0.0000000000000E+00
421  4.2000000000000E+00  0.0000000000000E+00  0.0000000000000E+00
422  4.2100000000000E+00  0.0000000000000E+00  0.0000000000000E+00
423  4.2200000000000E+00  0.0000000000000E+00  0.0000000000000E+00
424  4.2300000000000E+00  0.0000000000000E+00  0.0000000000000E+00
425  4.2400000000000E+00  0.0000000000000E+00  0.0000000000000E+00
426  4.2500000000000E+00  0.0000000000000E+00  0.0000000000000E+00
427  4.2600000000000E+00  0.0000000000000E+00  0.0000000000000E+00
428  4.2700000000000E+00  0.0000000000000E+00  0.0000000000000E+00
429  4.2800000000000E+00  0.0000000000000E+00  0.0000000000000E+00
430  4.2900000000000E+00  0.0000000000000E+00  0.0000000000000E+00
431  4.3000000000000E+00  0.0000000000000E+00  0.0000000000000E+00
432  4.3100000000000E+00  0.0000000000000E+00  0.0000000000000E+00
433  4.3200000000000E+00  0.0000000000000E+00  0.0000000000000E+00
434  4.3300000000000E+00  0.0000000000000E+00  0.0000000000000E+00
435  4.3400000000000E+00  0.0000000000000E+00  0.0000000000000E+00
436  4.3500000000000E+00  0.0000000000000E+00  0.0000000000000E+00
437  4.3600000000000E+00  0.0000000000000E+00  0.0000000000000E+00
438  4.3700000000000E+00  0.0000000000000E+00  0.0000000000000E+00
439  4.3800000000000E+00  0.0000000000000E+00  0.0000000000000E+00
440  4.3900000000000E+00  0.0000000000000E+00  0.0000000000000E+00
441  4.4000000000000E+00  0.0000000000000E+00  0.0000000000000E+00
442  4.4100000000000E+00  0.0000000000000E+00  0.0000000000000E+00
443  4.4200000000000E+00  0.0000000000000E+00  0.0000000000000E+00