Re    ONCVPSP-3.2.3.1  r_core=   1.60865   1.60865   1.60865   2.01786
75.0000     15.0000      170501    zatom,zion,pspd
8      11   3     4   600     0    pspcod,pspxc,lmax,lloc,mmax,r2well
5.99000000  4.00000000  0.00000000    rchrg fchrg qchrg
2     2     2     2     0    nproj
1     1           extension_switch
0                         6.3200425048913E+00 -9.6515454992163E-01
1  0.0000000000000E+00  1.7433487986551E-10  1.9403725848299E-09
2  1.0000000000000E-02  5.3502283480373E-02 -6.1310878595877E-02
3  2.0000000000000E-02  1.0694789401317E-01 -1.2223120196900E-01
4  3.0000000000000E-02  1.6027998995778E-01 -1.8237406549572E-01
5  4.0000000000000E-02  2.1344139585106E-01 -2.4135982380029E-01
6  5.0000000000000E-02  2.6637444435990E-01 -2.9881961600263E-01
7  6.0000000000000E-02  3.1902082874535E-01 -3.5439876710765E-01
8  7.0000000000000E-02  3.7132146913514E-01 -4.0776002655418E-01
9  8.0000000000000E-02  4.2321639572709E-01 -4.5858660688220E-01
10  9.0000000000000E-02  4.7464465183188E-01 -5.0658498785954E-01
11  1.0000000000000E-01  5.2554421941226E-01 -5.5148745420668E-01
12  1.1000000000000E-01  5.7585196948987E-01 -5.9305433823723E-01
13  1.2000000000000E-01  6.2550363947437E-01 -6.3107594225524E-01
14  1.3000000000000E-01  6.7443383912510E-01 -6.6537411937746E-01
15  1.4000000000000E-01  7.2257608648805E-01 -6.9580349553376E-01
16  1.5000000000000E-01  7.6986287476448E-01 -7.2225231969485E-01
17  1.6000000000000E-01  8.1622577066624E-01 -7.4464293383166E-01
18  1.7000000000000E-01  8.6159554440187E-01 -7.6293185867362E-01
19  1.8000000000000E-01  9.0590233102176E-01 -7.7710949594893E-01
20  1.9000000000000E-01  9.4907582243421E-01 -7.8719945240469E-01
21  2.0000000000000E-01  9.9104548899347E-01 -7.9325749546263E-01
22  2.1000000000000E-01  1.0317408291587E+00 -7.9537015481394E-01
23  2.2000000000000E-01  1.0710916453364E+00 -7.9365298854023E-01
24  2.3000000000000E-01  1.1090283436499E+00 -7.8824853641503E-01
25  2.4000000000000E-01  1.1454822550373E+00 -7.7932398684384E-01
26  2.5000000000000E-01  1.1803859747594E+00 -7.6706858739256E-01
27  2.6000000000000E-01  1.2136737171183E+00 -7.5169083199166E-01
28  2.7000000000000E-01  1.2452816819339E+00 -7.3341546064902E-01
29  2.8000000000000E-01  1.2751484291186E+00 -7.1248030982165E-01
30  2.9000000000000E-01  1.3032152575151E+00 -6.8913305345786E-01
31  3.0000000000000E-01  1.3294265840419E+00 -6.6362787610018E-01
32  3.1000000000000E-01  1.3537303191029E+00 -6.3622212031974E-01
33  3.2000000000000E-01  1.3760782341897E+00 -6.0717295111848E-01
34  3.3000000000000E-01  1.3964263176099E+00 -5.7673407978252E-01
35  3.4000000000000E-01  1.4147351143415E+00 -5.4515258899475E-01
36  3.5000000000000E-01  1.4309700461140E+00 -5.1266589982535E-01
37  3.6000000000000E-01  1.4451017079745E+00 -4.7949891952273E-01
38  3.7000000000000E-01  1.4571061377921E+00 -4.4586140684755E-01
39  3.8000000000000E-01  1.4669650553940E+00 -4.1194558904563E-01
40  3.9000000000000E-01  1.4746660683105E+00 -3.7792406147699E-01
41  4.0000000000000E-01  1.4802028414199E+00 -3.4394799743740E-01
42  4.1000000000000E-01  1.4835752281401E+00 -3.1014569186822E-01
43  4.2000000000000E-01  1.4847893611946E+00 -2.7662145849248E-01
44  4.3000000000000E-01  1.4838577013884E+00 -2.4345489548812E-01
45  4.4000000000000E-01  1.4807990432598E+00 -2.1070053016545E-01
46  4.5000000000000E-01  1.4756384769215E+00 -1.7838784830915E-01
47  4.6000000000000E-01  1.4684073058597E+00 -1.4652170893271E-01
48  4.7000000000000E-01  1.4591429209283E+00 -1.1508314023481E-01
49  4.8000000000000E-01  1.4478886312373E+00 -8.4030507599714E-02
50  4.9000000000000E-01  1.4346934530998E+00 -5.3301039612582E-02
51  5.0000000000000E-01  1.4196118586492E+00 -2.2812693319541E-02
52  5.1000000000000E-01  1.4027034861813E+00  7.5336645846155E-03
53  5.2000000000000E-01  1.3840328146869E+00  3.7851788258416E-02
54  5.3000000000000E-01  1.3636688054380E+00  6.8267326514971E-02
55  5.4000000000000E-01  1.3416845138480E+00  9.8914875175568E-02
56  5.5000000000000E-01  1.3181566751608E+00  1.2993484646349E-01
57  5.6000000000000E-01  1.2931652678070E+00  1.6147019671561E-01
58  5.7000000000000E-01  1.2667930585207E+00  1.9366305599800E-01
59  5.8000000000000E-01  1.2391251335083E+00  2.2665130499495E-01
60  5.9000000000000E-01  1.2102484201218E+00  2.6056514578660E-01
61  6.0000000000000E-01  1.1802512035914E+00  2.9552371380345E-01
62  6.1000000000000E-01  1.1492226434303E+00  3.3163177834128E-01
63  6.2000000000000E-01  1.1172522941269E+00  3.6897657852827E-01
64  6.3000000000000E-01  1.0844296346888E+00  4.0762484055064E-01
65  6.4000000000000E-01  1.0508436115025E+00  4.4762002027768E-01
66  6.5000000000000E-01  1.0165821988191E+00  4.8897981319865E-01
67  6.6000000000000E-01  9.8173198097205E-01  5.3169397079181E-01
68  6.7000000000000E-01  9.4637776018258E-01  5.7572245914295E-01
69  6.8000000000000E-01  9.1060219351050E-01  6.2099399185146E-01
70  6.9000000000000E-01  8.7448546217054E-01  6.6740496500227E-01
71  7.0000000000000E-01  8.3810497605591E-01  7.1481881735501E-01
72  7.1000000000000E-01  8.0153511589947E-01  7.6306583390182E-01
73  7.2000000000000E-01  7.6484701506324E-01  8.1194340567678E-01
74  7.3000000000000E-01  7.2810838247888E-01  8.6121675315588E-01
75  7.4000000000000E-01  6.9138336777900E-01  9.1062011491728E-01
76  7.5000000000000E-01  6.5473246915991E-01  9.5985839743310E-01
77  7.6000000000000E-01  6.1821248401042E-01  1.0086092760369E+00
78  7.7000000000000E-01  5.8187650183343E-01  1.0565257313194E+00
79  7.8000000000000E-01  5.4577393848424E-01  1.1032389995324E+00
80  7.9000000000000E-01  5.0995061025479E-01  1.1483619100495E+00
81  8.0000000000000E-01  4.7444884585715E-01  1.1914925776877E+00
82  8.1000000000000E-01  4.3930763390470E-01  1.2322184127324E+00
83  8.2000000000000E-01  4.0456280306170E-01  1.2701204069338E+00
84  8.3000000000000E-01  3.7024723163842E-01  1.3047776495976E+00
85  8.4000000000000E-01  3.3639108305232E-01  1.3357720242444E+00
86  8.5000000000000E-01  3.0302206326258E-01  1.3626930331991E+00
87  8.6000000000000E-01  2.7016569601787E-01  1.3851426949492E+00
88  8.7000000000000E-01  2.3784561154069E-01  1.4027404572093E+00
89  8.8000000000000E-01  2.0608384410765E-01  1.4151280673839E+00
90  8.9000000000000E-01  1.7490113387709E-01  1.4219743415533E+00
91  9.0000000000000E-01  1.4431722826418E-01  1.4229797732358E+00
92  9.1000000000000E-01  1.1435117817112E-01  1.4178809240112E+00
93  9.2000000000000E-01  8.5021624445924E-02  1.4064545396185E+00
94  9.3000000000000E-01  5.6347070067272E-02  1.3885213373716E+00
95  9.4000000000000E-01  2.8346133734317E-02  1.3639494136310E+00
96  9.5000000000000E-01  1.0377807777972E-03  1.3326572236334E+00
97  9.6000000000000E-01 -2.5558472401403E-02  1.2946160901482E+00
98  9.7000000000000E-01 -5.1422383823845E-02  1.2498522021281E+00
99  9.8000000000000E-01 -7.6532844418580E-02  1.1984480698747E+00
100  9.9000000000000E-01 -1.0086777214860E-01  1.1405434089147E+00
101  1.0000000000000E+00 -1.2440404395082E-01  1.0763354309576E+00
102  1.0100000000000E+00 -1.4711746717110E-01  1.0060785267935E+00
103  1.0200000000000E+00 -1.6898279165391E-01  9.3008333274025E-01
104  1.0300000000000E+00 -1.8997376309146E-01  8.4871517936344E-01
105  1.0400000000000E+00 -2.1006321772016E-01  7.6239192779680E-01
106  1.0500000000000E+00 -2.2922321783902E-01  6.7158120673873E-01
107  1.0600000000000E+00 -2.4742522710186E-01  5.7679706977553E-01
108  1.0700000000000E+00 -2.6464032397045E-01  4.7859609973555E-01
109  1.0800000000000E+00 -2.8083945115379E-01  3.7757299374889E-01
110  1.0900000000000E+00 -2.9599369840124E-01  2.7435566833724E-01
111  1.1000000000000E+00 -3.1007461544938E-01  1.6959993081818E-01
112  1.1100000000000E+00 -3.2305455151365E-01  6.3983768276830E-02
113  1.1200000000000E+00 -3.3490701727462E-01 -4.1798689317579E-02
114  1.1300000000000E+00 -3.4560706495670E-01 -1.4704347106658E-01
115  1.1400000000000E+00 -3.5513168176288E-01 -2.5104326742355E-01
116  1.1500000000000E+00 -3.6346019164067E-01 -3.5309406471678E-01
117  1.1600000000000E+00 -3.7057466017082E-01 -4.5250184178101E-01
118  1.1700000000000E+00 -3.7646029722521E-01 -5.4858925698747E-01
119  1.1800000000000E+00 -3.8110585192396E-01 -6.4070225278859E-01
120  1.1900000000000E+00 -3.8450399441638E-01 -7.2821650511036E-01
121  1.2000000000000E+00 -3.8665167910584E-01 -8.1054364640022E-01
122  1.2100000000000E+00 -3.8755048394629E-01 -8.8713719138819E-01
123  1.2200000000000E+00 -3.8720692070501E-01 -9.5749809835684E-01
124  1.2300000000000E+00 -3.8563271135207E-01 -1.0211799022166E+00
125  1.2400000000000E+00 -3.8284502594182E-01 -1.0777933584302E+00
126  1.2500000000000E+00 -3.7886667774457E-01 -1.1270105420224E+00
127  1.2600000000000E+00 -3.7372627195843E-01 -1.1685683532770E+00
128  1.2700000000000E+00 -3.6745830461352E-01 -1.2022713853656E+00
129  1.2800000000000E+00 -3.6010320875576E-01 -1.2279941152919E+00
130  1.2900000000000E+00 -3.5170734592902E-01 -1.2456823913955E+00
131  1.3000000000000E+00 -3.4232294114068E-01 -1.2553541927618E+00
132  1.3100000000000E+00 -3.3200796015835E-01 -1.2570996443505E+00
133  1.3200000000000E+00 -3.2082592916152E-01 -1.2510802864871E+00
134  1.3300000000000E+00 -3.0884569660739E-01 -1.2375275952951E+00
135  1.3400000000000E+00 -2.9614113830573E-01 -1.2167407649955E+00
136  1.3500000000000E+00 -2.8279080774211E-01 -1.1890837761011E+00
137  1.3600000000000E+00 -2.6887753310503E-01 -1.1549817662174E+00
138  1.3700000000000E+00 -2.5448796451170E-01 -1.1149167457778E+00
139  1.3800000000000E+00 -2.3971207483675E-01 -1.0694226998744E+00
140  1.3900000000000E+00 -2.2464261762961E-01 -1.0190801183921E+00
141  1.4000000000000E+00 -2.0937454755284E-01 -9.6451002103420E-01
142  1.4100000000000E+00 -1.9400440763751E-01 -9.0636752959530E-01
143  1.4200000000000E+00 -1.7862968922878E-01 -8.4533505958508E-01
144  1.4300000000000E+00 -1.6334817058059E-01 -7.8211520441833E-01
145  1.4400000000000E+00 -1.4825723983196E-01 -7.1742338248976E-01
146  1.4500000000000E+00 -1.3345320938271E-01 -6.5198033366939E-01
147  1.4600000000000E+00 -1.1903062776049E-01 -5.8650454007861E-01
148  1.4700000000000E+00 -1.0508159611326E-01 -5.2170465914575E-01
149  1.4800000000000E+00 -9.1695095679118E-02 -4.5827204726215E-01
150  1.4900000000000E+00 -7.8956333503423E-02 -3.9687346364034E-01
151  1.5000000000000E+00 -6.6946112137191E-02 -3.3814402534364E-01
152  1.5100000000000E+00 -5.5740230905254E-02 -2.8268050697926E-01
153  1.5200000000000E+00 -4.5408923592624E-02 -2.3103504525230E-01
154  1.5300000000000E+00 -3.6016339485135E-02 -1.8370933396132E-01
155  1.5400000000000E+00 -2.7620072526743E-02 -1.4114936855130E-01
156  1.5500000000000E+00 -2.0270743532984E-02 -1.0374080142681E-01
157  1.5600000000000E+00 -1.4016101896390E-02 -7.1827896256657E-02
158  1.5700000000000E+00 -8.8791259025083E-03 -4.5599273843323E-02
159  1.5800000000000E+00 -4.8696358963881E-03 -2.5142314089861E-02
160  1.5900000000000E+00 -2.0976486494076E-03 -1.1046217202818E-02
161  1.6000000000000E+00 -5.7744111473835E-04 -3.3742412811458E-03
162  1.6100000000000E+00  1.2216547377415E-05 -3.3511938712087E-04
163  1.6200000000000E+00  7.8327375608793E-05  2.2329363504606E-04
164  1.6300000000000E+00 -1.2255450527880E-05 -4.1759726129967E-05
165  1.6400000000000E+00 -2.7041140326048E-05 -9.8910207549879E-05
166  1.6500000000000E+00  2.4005101193303E-06  7.4826983972355E-06
167  1.6600000000000E+00  4.8260232084662E-06  1.5764856464037E-05
168  1.6700000000000E+00  3.8099307448479E-08  7.5656146612037E-07
169  1.6800000000000E+00  7.0567771309897E-08  1.4013077952994E-06
170  1.6900000000000E+00  0.0000000000000E+00  0.0000000000000E+00
171  1.7000000000000E+00  0.0000000000000E+00  0.0000000000000E+00
172  1.7100000000000E+00  0.0000000000000E+00  0.0000000000000E+00
173  1.7200000000000E+00  0.0000000000000E+00  0.0000000000000E+00
174  1.7300000000000E+00  0.0000000000000E+00  0.0000000000000E+00
175  1.7400000000000E+00  0.0000000000000E+00  0.0000000000000E+00
176  1.7500000000000E+00  0.0000000000000E+00  0.0000000000000E+00
177  1.7600000000000E+00  0.0000000000000E+00  0.0000000000000E+00
178  1.7700000000000E+00  0.0000000000000E+00  0.0000000000000E+00
179  1.7800000000000E+00  0.0000000000000E+00  0.0000000000000E+00
180  1.7900000000000E+00  0.0000000000000E+00  0.0000000000000E+00
181  1.8000000000000E+00  0.0000000000000E+00  0.0000000000000E+00
182  1.8100000000000E+00  0.0000000000000E+00  0.0000000000000E+00
183  1.8200000000000E+00  0.0000000000000E+00  0.0000000000000E+00
184  1.8300000000000E+00  0.0000000000000E+00  0.0000000000000E+00
185  1.8400000000000E+00  0.0000000000000E+00  0.0000000000000E+00
186  1.8500000000000E+00  0.0000000000000E+00  0.0000000000000E+00
187  1.8600000000000E+00  0.0000000000000E+00  0.0000000000000E+00
188  1.8700000000000E+00  0.0000000000000E+00  0.0000000000000E+00
189  1.8800000000000E+00  0.0000000000000E+00  0.0000000000000E+00
190  1.8900000000000E+00  0.0000000000000E+00  0.0000000000000E+00
191  1.9000000000000E+00  0.0000000000000E+00  0.0000000000000E+00
192  1.9100000000000E+00  0.0000000000000E+00  0.0000000000000E+00
193  1.9200000000000E+00  0.0000000000000E+00  0.0000000000000E+00
194  1.9300000000000E+00  0.0000000000000E+00  0.0000000000000E+00
195  1.9400000000000E+00  0.0000000000000E+00  0.0000000000000E+00
196  1.9500000000000E+00  0.0000000000000E+00  0.0000000000000E+00
197  1.9600000000000E+00  0.0000000000000E+00  0.0000000000000E+00
198  1.9700000000000E+00  0.0000000000000E+00  0.0000000000000E+00
199  1.9800000000000E+00  0.0000000000000E+00  0.0000000000000E+00
200  1.9900000000000E+00  0.0000000000000E+00  0.0000000000000E+00
201  2.0000000000000E+00  0.0000000000000E+00  0.0000000000000E+00
202  2.0100000000000E+00  0.0000000000000E+00  0.0000000000000E+00
203  2.0200000000000E+00  0.0000000000000E+00  0.0000000000000E+00
204  2.0300000000000E+00  0.0000000000000E+00  0.0000000000000E+00
205  2.0400000000000E+00  0.0000000000000E+00  0.0000000000000E+00
206  2.0500000000000E+00  0.0000000000000E+00  0.0000000000000E+00
207  2.0600000000000E+00  0.0000000000000E+00  0.0000000000000E+00
208  2.0700000000000E+00  0.0000000000000E+00  0.0000000000000E+00
209  2.0800000000000E+00  0.0000000000000E+00  0.0000000000000E+00
210  2.0900000000000E+00  0.0000000000000E+00  0.0000000000000E+00
211  2.1000000000000E+00  0.0000000000000E+00  0.0000000000000E+00
212  2.1100000000000E+00  0.0000000000000E+00  0.0000000000000E+00
213  2.1200000000000E+00  0.0000000000000E+00  0.0000000000000E+00
214  2.1300000000000E+00  0.0000000000000E+00  0.0000000000000E+00
215  2.1400000000000E+00  0.0000000000000E+00  0.0000000000000E+00
216  2.1500000000000E+00  0.0000000000000E+00  0.0000000000000E+00
217  2.1600000000000E+00  0.0000000000000E+00  0.0000000000000E+00
218  2.1700000000000E+00  0.0000000000000E+00  0.0000000000000E+00
219  2.1800000000000E+00  0.0000000000000E+00  0.0000000000000E+00
220  2.1900000000000E+00  0.0000000000000E+00  0.0000000000000E+00
221  2.2000000000000E+00  0.0000000000000E+00  0.0000000000000E+00
222  2.2100000000000E+00  0.0000000000000E+00  0.0000000000000E+00
223  2.2200000000000E+00  0.0000000000000E+00  0.0000000000000E+00
224  2.2300000000000E+00  0.0000000000000E+00  0.0000000000000E+00
225  2.2400000000000E+00  0.0000000000000E+00  0.0000000000000E+00
226  2.2500000000000E+00  0.0000000000000E+00  0.0000000000000E+00
227  2.2600000000000E+00  0.0000000000000E+00  0.0000000000000E+00
228  2.2700000000000E+00  0.0000000000000E+00  0.0000000000000E+00
229  2.2800000000000E+00  0.0000000000000E+00  0.0000000000000E+00
230  2.2900000000000E+00  0.0000000000000E+00  0.0000000000000E+00
231  2.3000000000000E+00  0.0000000000000E+00  0.0000000000000E+00
232  2.3100000000000E+00  0.0000000000000E+00  0.0000000000000E+00
233  2.3200000000000E+00  0.0000000000000E+00  0.0000000000000E+00
234  2.3300000000000E+00  0.0000000000000E+00  0.0000000000000E+00
235  2.3400000000000E+00  0.0000000000000E+00  0.0000000000000E+00
236  2.3500000000000E+00  0.0000000000000E+00  0.0000000000000E+00
237  2.3600000000000E+00  0.0000000000000E+00  0.0000000000000E+00
238  2.3700000000000E+00  0.0000000000000E+00  0.0000000000000E+00
239  2.3800000000000E+00  0.0000000000000E+00  0.0000000000000E+00
240  2.3900000000000E+00  0.0000000000000E+00  0.0000000000000E+00
241  2.4000000000000E+00  0.0000000000000E+00  0.0000000000000E+00
242  2.4100000000000E+00  0.0000000000000E+00  0.0000000000000E+00
243  2.4200000000000E+00  0.0000000000000E+00  0.0000000000000E+00
244  2.4300000000000E+00  0.0000000000000E+00  0.0000000000000E+00
245  2.4400000000000E+00  0.0000000000000E+00  0.0000000000000E+00
246  2.4500000000000E+00  0.0000000000000E+00  0.0000000000000E+00
247  2.4600000000000E+00  0.0000000000000E+00  0.0000000000000E+00
248  2.4700000000000E+00  0.0000000000000E+00  0.0000000000000E+00
249  2.4800000000000E+00  0.0000000000000E+00  0.0000000000000E+00
250  2.4900000000000E+00  0.0000000000000E+00  0.0000000000000E+00
251  2.5000000000000E+00  0.0000000000000E+00  0.0000000000000E+00
252  2.5100000000000E+00  0.0000000000000E+00  0.0000000000000E+00
253  2.5200000000000E+00  0.0000000000000E+00  0.0000000000000E+00
254  2.5300000000000E+00  0.0000000000000E+00  0.0000000000000E+00
255  2.5400000000000E+00  0.0000000000000E+00  0.0000000000000E+00
256  2.5500000000000E+00  0.0000000000000E+00  0.0000000000000E+00
257  2.5600000000000E+00  0.0000000000000E+00  0.0000000000000E+00
258  2.5700000000000E+00  0.0000000000000E+00  0.0000000000000E+00
259  2.5800000000000E+00  0.0000000000000E+00  0.0000000000000E+00
260  2.5900000000000E+00  0.0000000000000E+00  0.0000000000000E+00
261  2.6000000000000E+00  0.0000000000000E+00  0.0000000000000E+00
262  2.6100000000000E+00  0.0000000000000E+00  0.0000000000000E+00
263  2.6200000000000E+00  0.0000000000000E+00  0.0000000000000E+00
264  2.6300000000000E+00  0.0000000000000E+00  0.0000000000000E+00
265  2.6400000000000E+00  0.0000000000000E+00  0.0000000000000E+00
266  2.6500000000000E+00  0.0000000000000E+00  0.0000000000000E+00
267  2.6600000000000E+00  0.0000000000000E+00  0.0000000000000E+00
268  2.6700000000000E+00  0.0000000000000E+00  0.0000000000000E+00
269  2.6800000000000E+00  0.0000000000000E+00  0.0000000000000E+00
270  2.6900000000000E+00  0.0000000000000E+00  0.0000000000000E+00
271  2.7000000000000E+00  0.0000000000000E+00  0.0000000000000E+00
272  2.7100000000000E+00  0.0000000000000E+00  0.0000000000000E+00
273  2.7200000000000E+00  0.0000000000000E+00  0.0000000000000E+00
274  2.7300000000000E+00  0.0000000000000E+00  0.0000000000000E+00
275  2.7400000000000E+00  0.0000000000000E+00  0.0000000000000E+00
276  2.7500000000000E+00  0.0000000000000E+00  0.0000000000000E+00
277  2.7600000000000E+00  0.0000000000000E+00  0.0000000000000E+00
278  2.7700000000000E+00  0.0000000000000E+00  0.0000000000000E+00
279  2.7800000000000E+00  0.0000000000000E+00  0.0000000000000E+00
280  2.7900000000000E+00  0.0000000000000E+00  0.0000000000000E+00
281  2.8000000000000E+00  0.0000000000000E+00  0.0000000000000E+00
282  2.8100000000000E+00  0.0000000000000E+00  0.0000000000000E+00
283  2.8200000000000E+00  0.0000000000000E+00  0.0000000000000E+00
284  2.8300000000000E+00  0.0000000000000E+00  0.0000000000000E+00
285  2.8400000000000E+00  0.0000000000000E+00  0.0000000000000E+00
286  2.8500000000000E+00  0.0000000000000E+00  0.0000000000000E+00
287  2.8600000000000E+00  0.0000000000000E+00  0.0000000000000E+00
288  2.8700000000000E+00  0.0000000000000E+00  0.0000000000000E+00
289  2.8800000000000E+00  0.0000000000000E+00  0.0000000000000E+00
290  2.8900000000000E+00  0.0000000000000E+00  0.0000000000000E+00
291  2.9000000000000E+00  0.0000000000000E+00  0.0000000000000E+00
292  2.9100000000000E+00  0.0000000000000E+00  0.0000000000000E+00
293  2.9200000000000E+00  0.0000000000000E+00  0.0000000000000E+00
294  2.9300000000000E+00  0.0000000000000E+00  0.0000000000000E+00
295  2.9400000000000E+00  0.0000000000000E+00  0.0000000000000E+00
296  2.9500000000000E+00  0.0000000000000E+00  0.0000000000000E+00
297  2.9600000000000E+00  0.0000000000000E+00  0.0000000000000E+00
298  2.9700000000000E+00  0.0000000000000E+00  0.0000000000000E+00
299  2.9800000000000E+00  0.0000000000000E+00  0.0000000000000E+00
300  2.9900000000000E+00  0.0000000000000E+00  0.0000000000000E+00
301  3.0000000000000E+00  0.0000000000000E+00  0.0000000000000E+00
302  3.0100000000000E+00  0.0000000000000E+00  0.0000000000000E+00
303  3.0200000000000E+00  0.0000000000000E+00  0.0000000000000E+00
304  3.0300000000000E+00  0.0000000000000E+00  0.0000000000000E+00
305  3.0400000000000E+00  0.0000000000000E+00  0.0000000000000E+00
306  3.0500000000000E+00  0.0000000000000E+00  0.0000000000000E+00
307  3.0600000000000E+00  0.0000000000000E+00  0.0000000000000E+00
308  3.0700000000000E+00  0.0000000000000E+00  0.0000000000000E+00
309  3.0800000000000E+00  0.0000000000000E+00  0.0000000000000E+00
310  3.0900000000000E+00  0.0000000000000E+00  0.0000000000000E+00
311  3.1000000000000E+00  0.0000000000000E+00  0.0000000000000E+00
312  3.1100000000000E+00  0.0000000000000E+00  0.0000000000000E+00
313  3.1200000000000E+00  0.0000000000000E+00  0.0000000000000E+00
314  3.1300000000000E+00  0.0000000000000E+00  0.0000000000000E+00
315  3.1400000000000E+00  0.0000000000000E+00  0.0000000000000E+00
316  3.1500000000000E+00  0.0000000000000E+00  0.0000000000000E+00
317  3.1600000000000E+00  0.0000000000000E+00  0.0000000000000E+00
318  3.1700000000000E+00  0.0000000000000E+00  0.0000000000000E+00
319  3.1800000000000E+00  0.0000000000000E+00  0.0000000000000E+00
320  3.1900000000000E+00  0.0000000000000E+00  0.0000000000000E+00
321  3.2000000000000E+00  0.0000000000000E+00  0.0000000000000E+00
322  3.2100000000000E+00  0.0000000000000E+00  0.0000000000000E+00
323  3.2200000000000E+00  0.0000000000000E+00  0.0000000000000E+00
324  3.2300000000000E+00  0.0000000000000E+00  0.0000000000000E+00
325  3.2400000000000E+00  0.0000000000000E+00  0.0000000000000E+00
326  3.2500000000000E+00  0.0000000000000E+00  0.0000000000000E+00
327  3.2600000000000E+00  0.0000000000000E+00  0.0000000000000E+00
328  3.2700000000000E+00  0.0000000000000E+00  0.0000000000000E+00
329  3.2800000000000E+00  0.0000000000000E+00  0.0000000000000E+00
330  3.2900000000000E+00  0.0000000000000E+00  0.0000000000000E+00
331  3.3000000000000E+00  0.0000000000000E+00  0.0000000000000E+00
332  3.3100000000000E+00  0.0000000000000E+00  0.0000000000000E+00
333  3.3200000000000E+00  0.0000000000000E+00  0.0000000000000E+00
334  3.3300000000000E+00  0.0000000000000E+00  0.0000000000000E+00
335  3.3400000000000E+00  0.0000000000000E+00  0.0000000000000E+00
336  3.3500000000000E+00  0.0000000000000E+00  0.0000000000000E+00
337  3.3600000000000E+00  0.0000000000000E+00  0.0000000000000E+00
338  3.3700000000000E+00  0.0000000000000E+00  0.0000000000000E+00
339  3.3800000000000E+00  0.0000000000000E+00  0.0000000000000E+00
340  3.3900000000000E+00  0.0000000000000E+00  0.0000000000000E+00
341  3.4000000000000E+00  0.0000000000000E+00  0.0000000000000E+00
342  3.4100000000000E+00  0.0000000000000E+00  0.0000000000000E+00
343  3.4200000000000E+00  0.0000000000000E+00  0.0000000000000E+00
344  3.4300000000000E+00  0.0000000000000E+00  0.0000000000000E+00
345  3.4400000000000E+00  0.0000000000000E+00  0.0000000000000E+00
346  3.4500000000000E+00  0.0000000000000E+00  0.0000000000000E+00
347  3.4600000000000E+00  0.0000000000000E+00  0.0000000000000E+00
348  3.4700000000000E+00  0.0000000000000E+00  0.0000000000000E+00
349  3.4800000000000E+00  0.0000000000000E+00  0.0000000000000E+00
350  3.4900000000000E+00  0.0000000000000E+00  0.0000000000000E+00
351  3.5000000000000E+00  0.0000000000000E+00  0.0000000000000E+00
352  3.5100000000000E+00  0.0000000000000E+00  0.0000000000000E+00
353  3.5200000000000E+00  0.0000000000000E+00  0.0000000000000E+00
354  3.5300000000000E+00  0.0000000000000E+00  0.0000000000000E+00
355  3.5400000000000E+00  0.0000000000000E+00  0.0000000000000E+00
356  3.5500000000000E+00  0.0000000000000E+00  0.0000000000000E+00
357  3.5600000000000E+00  0.0000000000000E+00  0.0000000000000E+00
358  3.5700000000000E+00  0.0000000000000E+00  0.0000000000000E+00
359  3.5800000000000E+00  0.0000000000000E+00  0.0000000000000E+00
360  3.5900000000000E+00  0.0000000000000E+00  0.0000000000000E+00
361  3.6000000000000E+00  0.0000000000000E+00  0.0000000000000E+00
362  3.6100000000000E+00  0.0000000000000E+00  0.0000000000000E+00
363  3.6200000000000E+00  0.0000000000000E+00  0.0000000000000E+00
364  3.6300000000000E+00  0.0000000000000E+00  0.0000000000000E+00
365  3.6400000000000E+00  0.0000000000000E+00  0.0000000000000E+00
366  3.6500000000000E+00  0.0000000000000E+00  0.0000000000000E+00
367  3.6600000000000E+00  0.0000000000000E+00  0.0000000000000E+00
368  3.6700000000000E+00  0.0000000000000E+00  0.0000000000000E+00
369  3.6800000000000E+00  0.0000000000000E+00  0.0000000000000E+00
370  3.6900000000000E+00  0.0000000000000E+00  0.0000000000000E+00
371  3.7000000000000E+00  0.0000000000000E+00  0.0000000000000E+00
372  3.7100000000000E+00  0.0000000000000E+00  0.0000000000000E+00
373  3.7200000000000E+00  0.0000000000000E+00  0.0000000000000E+00
374  3.7300000000000E+00  0.0000000000000E+00  0.0000000000000E+00
375  3.7400000000000E+00  0.0000000000000E+00  0.0000000000000E+00
376  3.7500000000000E+00  0.0000000000000E+00  0.0000000000000E+00
377  3.7600000000000E+00  0.0000000000000E+00  0.0000000000000E+00
378  3.7700000000000E+00  0.0000000000000E+00  0.0000000000000E+00
379  3.7800000000000E+00  0.0000000000000E+00  0.0000000000000E+00
380  3.7900000000000E+00  0.0000000000000E+00  0.0000000000000E+00
381  3.8000000000000E+00  0.0000000000000E+00  0.0000000000000E+00
382  3.8100000000000E+00  0.0000000000000E+00  0.0000000000000E+00
383  3.8200000000000E+00  0.0000000000000E+00  0.0000000000000E+00
384  3.8300000000000E+00  0.0000000000000E+00  0.0000000000000E+00
385  3.8400000000000E+00  0.0000000000000E+00  0.0000000000000E+00
386  3.8500000000000E+00  0.0000000000000E+00  0.0000000000000E+00
387  3.8600000000000E+00  0.0000000000000E+00  0.0000000000000E+00
388  3.8700000000000E+00  0.0000000000000E+00  0.0000000000000E+00
389  3.8800000000000E+00  0.0000000000000E+00  0.0000000000000E+00
390  3.8900000000000E+00  0.0000000000000E+00  0.0000000000000E+00
391  3.9000000000000E+00  0.0000000000000E+00  0.0000000000000E+00
392  3.9100000000000E+00  0.0000000000000E+00  0.0000000000000E+00
393  3.9200000000000E+00  0.0000000000000E+00  0.0000000000000E+00
394  3.9300000000000E+00  0.0000000000000E+00  0.0000000000000E+00
395  3.9400000000000E+00  0.0000000000000E+00  0.0000000000000E+00
396  3.9500000000000E+00  0.0000000000000E+00  0.0000000000000E+00
397  3.9600000000000E+00  0.0000000000000E+00  0.0000000000000E+00
398  3.9700000000000E+00  0.0000000000000E+00  0.0000000000000E+00
399  3.9800000000000E+00  0.0000000000000E+00  0.0000000000000E+00
400  3.9900000000000E+00  0.0000000000000E+00  0.0000000000000E+00
401  4.0000000000000E+00  0.0000000000000E+00  0.0000000000000E+00
402  4.0100000000000E+00  0.0000000000000E+00  0.0000000000000E+00
403  4.0200000000000E+00  0.0000000000000E+00  0.0000000000000E+00
404  4.0300000000000E+00  0.0000000000000E+00  0.0000000000000E+00
405  4.0400000000000E+00  0.0000000000000E+00  0.0000000000000E+00
406  4.0500000000000E+00  0.0000000000000E+00  0.0000000000000E+00
407  4.0600000000000E+00  0.0000000000000E+00  0.0000000000000E+00
408  4.0700000000000E+00  0.0000000000000E+00  0.0000000000000E+00
409  4.0800000000000E+00  0.0000000000000E+00  0.0000000000000E+00
410  4.0900000000000E+00  0.0000000000000E+00  0.0000000000000E+00
411  4.1000000000000E+00  0.0000000000000E+00  0.0000000000000E+00
412  4.1100000000000E+00  0.0000000000000E+00  0.0000000000000E+00
413  4.1200000000000E+00  0.0000000000000E+00  0.0000000000000E+00
414  4.1300000000000E+00  0.0000000000000E+00  0.0000000000000E+00
415  4.1400000000000E+00  0.0000000000000E+00  0.0000000000000E+00
416  4.1500000000000E+00  0.0000000000000E+00  0.0000000000000E+00
417  4.1600000000000E+00  0.0000000000000E+00  0.0000000000000E+00
418  4.1700000000000E+00  0.0000000000000E+00  0.0000000000000E+00
419  4.1800000000000E+00  0.0000000000000E+00  0.0000000000000E+00
420  4.1900000000000E+00  0.0000000000000E+00  0.0000000000000E+00
421  4.2000000000000E+00  0.0000000000000E+00  0.0000000000000E+00
422  4.2100000000000E+00  0.0000000000000E+00  0.0000000000000E+00
423  4.2200000000000E+00  0.0000000000000E+00  0.0000000000000E+00
424  4.2300000000000E+00  0.0000000000000E+00  0.0000000000000E+00
425  4.2400000000000E+00  0.0000000000000E+00  0.0000000000000E+00
426  4.2500000000000E+00  0.0000000000000E+00  0.0000000000000E+00
427  4.2600000000000E+00  0.0000000000000E+00  0.0000000000000E+00
428  4.2700000000000E+00  0.0000000000000E+00  0.0000000000000E+00
429  4.2800000000000E+00  0.0000000000000E+00  0.0000000000000E+00
430  4.2900000000000E+00  0.0000000000000E+00  0.0000000000000E+00
431  4.3000000000000E+00  0.0000000000000E+00  0.0000000000000E+00
432  4.3100000000000E+00  0.0000000000000E+00  0.0000000000000E+00
433  4.3200000000000E+00  0.0000000000000E+00  0.0000000000000E+00
434  4.3300000000000E+00  0.0000000000000E+00  0.0000000000000E+00
435  4.3400000000000E+00  0.0000000000000E+00  0.0000000000000E+00
436  4.3500000000000E+00  0.0000000000000E+00  0.0000000000000E+00
437  4.3600000000000E+00  0.0000000000000E+00  0.0000000000000E+00
438  4.3700000000000E+00  0.0000000000000E+00  0.0000000000000E+00
439  4.3800000000000E+00  0.0000000000000E+00  0.0000000000000E+00
440  4.3900000000000E+00  0.0000000000000E+00  0.0000000000000E+00
441  4.4000000000000E+00  0.0000000000000E+00  0.0000000000000E+00
442  4.4100000000000E+00  0.0000000000000E+00  0.0000000000000E+00
443  4.4200000000000E+00  0.0000000000000E+00  0.0000000000000E+00