Pt    ONCVPSP-3.2.3.1  r_core=   1.45722   1.45722   1.45722   1.91724
78.0000     18.0000      170503    zatom,zion,pspd
8      11   3     4   500     0    pspcod,pspxc,lmax,lloc,mmax,r2well
4.99000000  5.00000000  0.00000000    rchrg fchrg qchrg
2     2     2     2     0    nproj
1     1           extension_switch
0                         1.7920610840656E+01  1.7277904626614E+00
1  0.0000000000000E+00 -3.6549874238290E-10  1.9395970940472E-10
2  1.0000000000000E-02  8.1686457613717E-02 -1.9772567794469E-02
3  2.0000000000000E-02  1.6317213416030E-01 -3.9432841391566E-02
4  3.0000000000000E-02  2.4425689477439E-01 -5.8868787640769E-02
5  4.0000000000000E-02  3.2474188985675E-01 -7.7968880534204E-02
6  5.0000000000000E-02  4.0443018260498E-01 -9.6622330740104E-02
7  6.0000000000000E-02  4.8312736149730E-01 -1.1471930016464E-01
8  7.0000000000000E-02  5.6064213456759E-01 -1.3215110338068E-01
9  8.0000000000000E-02  6.3678690267490E-01 -1.4881039795611E-01
10  9.0000000000000E-02  7.1137830935414E-01 -1.6459136589987E-01
11  1.0000000000000E-01  7.8423776522752E-01 -1.7938988861392E-01
12  1.1000000000000E-01  8.5519194535382E-01 -1.9310371788621E-01
13  1.2000000000000E-01  9.2407325828646E-01 -2.0563264557725E-01
14  1.3000000000000E-01  9.9072028599692E-01 -2.1687867473492E-01
15  1.4000000000000E-01  1.0549781941898E+00 -2.2674619491377E-01
16  1.5000000000000E-01  1.1166991128864E+00 -2.3514216447218E-01
17  1.6000000000000E-01  1.1757424874785E+00 -2.4197630256905E-01
18  1.7000000000000E-01  1.2319754007487E+00 -2.4716129347994E-01
19  1.8000000000000E-01  1.2852728666168E+00 -2.5061300569773E-01
20  1.9000000000000E-01  1.3355180965973E+00 -2.5225072807512E-01
21  2.0000000000000E-01  1.3826027401394E+00 -2.5199742500563E-01
22  2.1000000000000E-01  1.4264271001678E+00 -2.4978001232684E-01
23  2.2000000000000E-01  1.4669003252461E+00 -2.4552965526733E-01
24  2.3000000000000E-01  1.5039405798479E+00 -2.3918208934918E-01
25  2.4000000000000E-01  1.5374751942389E+00 -2.3067796470534E-01
26  2.5000000000000E-01  1.5674407954522E+00 -2.1996321378018E-01
27  2.6000000000000E-01  1.5937834207777E+00 -2.0698944185695E-01
28  2.7000000000000E-01  1.6164586150859E+00 -1.9171433930480E-01
29  2.8000000000000E-01  1.6354315131715E+00 -1.7410211386581E-01
30  2.9000000000000E-01  1.6506769081376E+00 -1.5412394071729E-01
31  3.0000000000000E-01  1.6621793066398E+00 -1.3175842745447E-01
32  3.1000000000000E-01  1.6699329715965E+00 -1.0699209054979E-01
33  3.2000000000000E-01  1.6739419527263E+00 -7.9819839268742E-02
34  3.3000000000000E-01  1.6742201050197E+00 -5.0245462463960E-02
35  3.4000000000000E-01  1.6707910949886E+00 -1.8282113140094E-02
36  3.5000000000000E-01  1.6636883942627E+00  1.6047214810436E-02
37  3.6000000000000E-01  1.6529552598375E+00  5.2709223748516E-02
38  3.7000000000000E-01  1.6386447000078E+00  9.1659869747154E-02
39  3.8000000000000E-01  1.6208194247753E+00  1.3284394714165E-01
40  3.9000000000000E-01  1.5995517792745E+00  1.7619470720762E-01
41  4.0000000000000E-01  1.5749236585541E+00  2.2163351819129E-01
42  4.1000000000000E-01  1.5470264018573E+00  2.6906957402155E-01
43  4.2000000000000E-01  1.5159606643897E+00  3.1839965905147E-01
44  4.3000000000000E-01  1.4818362644417E+00  3.6950797610289E-01
45  4.4000000000000E-01  1.4447720036494E+00  4.2226604491757E-01
46  4.5000000000000E-01  1.4048954581374E+00  4.7653267785087E-01
47  4.6000000000000E-01  1.3623427382906E+00  5.3215403927596E-01
48  4.7000000000000E-01  1.3172582149565E+00  5.8896379469811E-01
49  4.8000000000000E-01  1.2697942099766E+00  6.4678335501278E-01
50  4.9000000000000E-01  1.2201106490966E+00  7.0542222067588E-01
51  5.0000000000000E-01  1.1683746755047E+00  7.6467842979769E-01
52  5.1000000000000E-01  1.1147602224941E+00  8.2433911332503E-01
53  5.2000000000000E-01  1.0594475440411E+00  8.8418115954670E-01
54  5.3000000000000E-01  1.0026227024314E+00  9.4397198915141E-01
55  5.4000000000000E-01  9.4447701245028E-01  1.0034704409964E+00
56  5.5000000000000E-01  8.8520644207303E-01  1.0624277676118E+00
57  5.6000000000000E-01  8.2501097005132E-01  1.1205887382916E+00
58  5.7000000000000E-01  7.6409390127548E-01  1.1776928464064E+00
59  5.8000000000000E-01  7.0266114130597E-01  1.2334756163401E+00
60  5.9000000000000E-01  6.4092043199594E-01  1.2876700042061E+00
61  6.0000000000000E-01  5.7908055067003E-01  1.3400078852584E+00
62  6.1000000000000E-01  5.1735047587121E-01  1.3902216196927E+00
63  6.2000000000000E-01  4.5593852323323E-01  1.4380456873451E+00
64  6.3000000000000E-01  3.9505145557398E-01  1.4832183806563E+00
65  6.4000000000000E-01  3.3489357182269E-01  1.5254835441971E+00
66  6.5000000000000E-01  2.7566577989166E-01  1.5645923480557E+00
67  6.6000000000000E-01  2.1756465906670E-01  1.6003050814820E+00
68  6.7000000000000E-01  1.6078151791336E-01  1.6323929523957E+00
69  6.8000000000000E-01  1.0550145407771E-01  1.6606398776850E+00
70  6.9000000000000E-01  5.1902422683661E-02  1.6848442486854E+00
71  7.0000000000000E-01  1.5432029630161E-04  1.7048206558293E+00
72  7.1000000000000E-01 -4.9581908378050E-02  1.7204015562137E+00
73  7.2000000000000E-01 -9.7155133752778E-02  1.7314388677506E+00
74  7.3000000000000E-01 -1.4242486722383E-01  1.7378054736539E+00
75  7.4000000000000E-01 -1.8526204229620E-01  1.7393966212742E+00
76  7.5000000000000E-01 -2.2554974373769E-01  1.7361311997323E+00
77  7.6000000000000E-01 -2.6318387770668E-01  1.7279528814146E+00
78  7.7000000000000E-01 -2.9807377606846E-01  1.7148311131861E+00
79  7.8000000000000E-01 -3.3014272846418E-01  1.6967619441411E+00
80  7.9000000000000E-01 -3.5932843612714E-01  1.6737686778422E+00
81  8.0000000000000E-01 -3.8558338195155E-01  1.6459023382915E+00
82  8.1000000000000E-01 -4.0887511190418E-01  1.6132419403207E+00
83  8.2000000000000E-01 -4.2918642352509E-01  1.5758945566671E+00
84  8.3000000000000E-01 -4.4651545798543E-01  1.5339951757081E+00
85  8.4000000000000E-01 -4.6087569294969E-01  1.4877063456424E+00
86  8.5000000000000E-01 -4.7229583432045E-01  1.4372176028090E+00
87  8.6000000000000E-01 -4.8081960581723E-01  1.3827446838139E+00
88  8.7000000000000E-01 -4.8650543624724E-01  1.3245285231596E+00
89  8.8000000000000E-01 -4.8942604525585E-01  1.2628340401301E+00
90  8.9000000000000E-01 -4.8966792928744E-01  1.1979487207448E+00
91  9.0000000000000E-01 -4.8733075043192E-01  1.1301810026370E+00
92  9.1000000000000E-01 -4.8252663176812E-01  1.0598584727139E+00
93  9.2000000000000E-01 -4.7537936372942E-01  9.8732588938708E-01
94  9.3000000000000E-01 -4.6602352690015E-01  9.1294304300503E-01
95  9.4000000000000E-01 -4.5460353748951E-01  8.3708246984244E-01
96  9.5000000000000E-01 -4.4127262251435E-01  7.6012703658968E-01
97  9.6000000000000E-01 -4.2619173244005E-01  6.8246741370936E-01
98  9.7000000000000E-01 -4.0952839967088E-01  6.0449945726915E-01
99  9.8000000000000E-01 -3.9145555184276E-01  5.2662151990797E-01
100  9.9000000000000E-01 -3.7215028932183E-01  4.4923171239446E-01
101  1.0000000000000E+00 -3.5179263669106E-01  3.7272513785461E-01
102  1.0100000000000E+00 -3.3056427824653E-01  2.9749112106384E-01
103  1.0200000000000E+00 -3.0864728766875E-01  2.2391045529201E-01
104  1.0300000000000E+00 -2.8622286205549E-01  1.5235268901343E-01
105  1.0400000000000E+00 -2.6347007039625E-01  8.3173474329492E-02
106  1.0500000000000E+00 -2.4056462634968E-01  1.6711998250016E-02
107  1.0600000000000E+00 -2.1767769485222E-01 -4.6711482978709E-02
108  1.0700000000000E+00 -1.9497474159681E-01 -1.0679798761491E-01
109  1.0800000000000E+00 -1.7261443386282E-01 -1.6327201277851E-01
110  1.0900000000000E+00 -1.5074760044621E-01 -2.1588358379881E-01
111  1.1000000000000E+00 -1.2951625768436E-01 -2.6441013477169E-01
112  1.1100000000000E+00 -1.0905270766789E-01 -3.0865820872264E-01
113  1.1200000000000E+00 -8.9478713690871E-02 -3.4846496824009E-01
114  1.1300000000000E+00 -7.0904756966518E-02 -3.8369950984865E-01
115  1.1400000000000E+00 -5.3429377450446E-02 -4.1426397814608E-01
116  1.1500000000000E+00 -3.7138600604607E-02 -4.4009447806495E-01
117  1.1600000000000E+00 -2.2105450426462E-02 -4.6116178707160E-01
118  1.1700000000000E+00 -8.3895479625237E-03 -4.7747187162017E-01
119  1.1800000000000E+00  3.9632067044755E-03 -4.8906621495879E-01
120  1.1900000000000E+00  1.4920872254107E-02 -4.9602196619407E-01
121  1.2000000000000E+00  2.4465628392069E-02 -4.9845192367870E-01
122  1.2100000000000E+00  3.2593868456170E-02 -4.9650436841720E-01
123  1.2200000000000E+00  3.9316228917873E-02 -4.9036276469080E-01
124  1.2300000000000E+00  4.4657564167271E-02 -4.8024534909775E-01
125  1.2400000000000E+00  4.8656875587191E-02 -4.6640463049843E-01
126  1.2500000000000E+00  5.1367204648480E-02 -4.4912682492224E-01
127  1.2600000000000E+00  5.2855500979790E-02 -4.2873125207615E-01
128  1.2700000000000E+00  5.3202486510440E-02 -4.0556974872953E-01
129  1.2800000000000E+00  5.2502485466262E-02 -3.8002600518411E-01
130  1.2900000000000E+00  5.0863302849065E-02 -3.5251506218512E-01
131  1.3000000000000E+00  4.8405779180580E-02 -3.2348188114978E-01
132  1.3100000000000E+00  4.5265362484989E-02 -2.9340571711842E-01
133  1.3200000000000E+00  4.1587801756056E-02 -2.6278757443664E-01
134  1.3300000000000E+00  3.7522145654112E-02 -2.3213003266143E-01
135  1.3400000000000E+00  3.3212755195770E-02 -2.0191498839089E-01
136  1.3500000000000E+00  2.8795111313407E-02 -1.7259243643306E-01
137  1.3600000000000E+00  2.4395922211203E-02 -1.4458181213087E-01
138  1.3700000000000E+00  2.0131152060152E-02 -1.1826717705955E-01
139  1.3800000000000E+00  1.6104867658651E-02 -9.3994747291296E-02
140  1.3900000000000E+00  1.2408050773501E-02 -7.2070247749922E-02
141  1.4000000000000E+00  9.1175795973422E-03 -5.2756683951995E-02
142  1.4100000000000E+00  6.2966177515333E-03 -3.6279469736838E-02
143  1.4200000000000E+00  3.9886528771802E-03 -2.2795983080919E-02
144  1.4300000000000E+00  2.2105178826343E-03 -1.2364866051293E-02
145  1.4400000000000E+00  1.0182198093142E-03 -5.2808097059077E-03
146  1.4500000000000E+00  4.2395273058468E-04 -1.6349712158989E-03
147  1.4600000000000E+00  1.7024804480528E-04 -2.8706055282986E-04
148  1.4700000000000E+00  3.4970481524592E-05  5.5046314419743E-06
149  1.4800000000000E+00 -1.1487133071147E-05 -1.4822564717716E-05
150  1.4900000000000E+00 -3.6162738278460E-06 -8.5572334188530E-06
151  1.5000000000000E+00  3.1810025249150E-06  1.0259748538030E-06
152  1.5100000000000E+00  1.4884099511862E-07  9.2981742116817E-08
153  1.5200000000000E+00 -6.3318983695048E-07  1.4505862477900E-06
154  1.5300000000000E+00  0.0000000000000E+00  0.0000000000000E+00
155  1.5400000000000E+00  0.0000000000000E+00  0.0000000000000E+00
156  1.5500000000000E+00  0.0000000000000E+00  0.0000000000000E+00
157  1.5600000000000E+00  0.0000000000000E+00  0.0000000000000E+00
158  1.5700000000000E+00  0.0000000000000E+00  0.0000000000000E+00
159  1.5800000000000E+00  0.0000000000000E+00  0.0000000000000E+00
160  1.5900000000000E+00  0.0000000000000E+00  0.0000000000000E+00
161  1.6000000000000E+00  0.0000000000000E+00  0.0000000000000E+00
162  1.6100000000000E+00  0.0000000000000E+00  0.0000000000000E+00
163  1.6200000000000E+00  0.0000000000000E+00  0.0000000000000E+00
164  1.6300000000000E+00  0.0000000000000E+00  0.0000000000000E+00
165  1.6400000000000E+00  0.0000000000000E+00  0.0000000000000E+00
166  1.6500000000000E+00  0.0000000000000E+00  0.0000000000000E+00
167  1.6600000000000E+00  0.0000000000000E+00  0.0000000000000E+00
168  1.6700000000000E+00  0.0000000000000E+00  0.0000000000000E+00
169  1.6800000000000E+00  0.0000000000000E+00  0.0000000000000E+00
170  1.6900000000000E+00  0.0000000000000E+00  0.0000000000000E+00
171  1.7000000000000E+00  0.0000000000000E+00  0.0000000000000E+00
172  1.7100000000000E+00  0.0000000000000E+00  0.0000000000000E+00
173  1.7200000000000E+00  0.0000000000000E+00  0.0000000000000E+00
174  1.7300000000000E+00  0.0000000000000E+00  0.0000000000000E+00
175  1.7400000000000E+00  0.0000000000000E+00  0.0000000000000E+00
176  1.7500000000000E+00  0.0000000000000E+00  0.0000000000000E+00
177  1.7600000000000E+00  0.0000000000000E+00  0.0000000000000E+00
178  1.7700000000000E+00  0.0000000000000E+00  0.0000000000000E+00
179  1.7800000000000E+00  0.0000000000000E+00  0.0000000000000E+00
180  1.7900000000000E+00  0.0000000000000E+00  0.0000000000000E+00
181  1.8000000000000E+00  0.0000000000000E+00  0.0000000000000E+00
182  1.8100000000000E+00  0.0000000000000E+00  0.0000000000000E+00
183  1.8200000000000E+00  0.0000000000000E+00  0.0000000000000E+00
184  1.8300000000000E+00  0.0000000000000E+00  0.0000000000000E+00
185  1.8400000000000E+00  0.0000000000000E+00  0.0000000000000E+00
186  1.8500000000000E+00  0.0000000000000E+00  0.0000000000000E+00
187  1.8600000000000E+00  0.0000000000000E+00  0.0000000000000E+00
188  1.8700000000000E+00  0.0000000000000E+00  0.0000000000000E+00
189  1.8800000000000E+00  0.0000000000000E+00  0.0000000000000E+00
190  1.8900000000000E+00  0.0000000000000E+00  0.0000000000000E+00
191  1.9000000000000E+00  0.0000000000000E+00  0.0000000000000E+00
192  1.9100000000000E+00  0.0000000000000E+00  0.0000000000000E+00
193  1.9200000000000E+00  0.0000000000000E+00  0.0000000000000E+00
194  1.9300000000000E+00  0.0000000000000E+00  0.0000000000000E+00
195  1.9400000000000E+00  0.0000000000000E+00  0.0000000000000E+00
196  1.9500000000000E+00  0.0000000000000E+00  0.0000000000000E+00
197  1.9600000000000E+00  0.0000000000000E+00  0.0000000000000E+00
198  1.9700000000000E+00  0.0000000000000E+00  0.0000000000000E+00
199  1.9800000000000E+00  0.0000000000000E+00  0.0000000000000E+00
200  1.9900000000000E+00  0.0000000000000E+00  0.0000000000000E+00
201  2.0000000000000E+00  0.0000000000000E+00  0.0000000000000E+00
202  2.0100000000000E+00  0.0000000000000E+00  0.0000000000000E+00
203  2.0200000000000E+00  0.0000000000000E+00  0.0000000000000E+00
204  2.0300000000000E+00  0.0000000000000E+00  0.0000000000000E+00
205  2.0400000000000E+00  0.0000000000000E+00  0.0000000000000E+00
206  2.0500000000000E+00  0.0000000000000E+00  0.0000000000000E+00
207  2.0600000000000E+00  0.0000000000000E+00  0.0000000000000E+00
208  2.0700000000000E+00  0.0000000000000E+00  0.0000000000000E+00
209  2.0800000000000E+00  0.0000000000000E+00  0.0000000000000E+00
210  2.0900000000000E+00  0.0000000000000E+00  0.0000000000000E+00
211  2.1000000000000E+00  0.0000000000000E+00  0.0000000000000E+00
212  2.1100000000000E+00  0.0000000000000E+00  0.0000000000000E+00
213  2.1200000000000E+00  0.0000000000000E+00  0.0000000000000E+00
214  2.1300000000000E+00  0.0000000000000E+00  0.0000000000000E+00
215  2.1400000000000E+00  0.0000000000000E+00  0.0000000000000E+00
216  2.1500000000000E+00  0.0000000000000E+00  0.0000000000000E+00
217  2.1600000000000E+00  0.0000000000000E+00  0.0000000000000E+00
218  2.1700000000000E+00  0.0000000000000E+00  0.0000000000000E+00
219  2.1800000000000E+00  0.0000000000000E+00  0.0000000000000E+00
220  2.1900000000000E+00  0.0000000000000E+00  0.0000000000000E+00
221  2.2000000000000E+00  0.0000000000000E+00  0.0000000000000E+00
222  2.2100000000000E+00  0.0000000000000E+00  0.0000000000000E+00
223  2.2200000000000E+00  0.0000000000000E+00  0.0000000000000E+00
224  2.2300000000000E+00  0.0000000000000E+00  0.0000000000000E+00
225  2.2400000000000E+00  0.0000000000000E+00  0.0000000000000E+00
226  2.2500000000000E+00  0.0000000000000E+00  0.0000000000000E+00
227  2.2600000000000E+00  0.0000000000000E+00  0.0000000000000E+00
228  2.2700000000000E+00  0.0000000000000E+00  0.0000000000000E+00
229  2.2800000000000E+00  0.0000000000000E+00  0.0000000000000E+00
230  2.2900000000000E+00  0.0000000000000E+00  0.0000000000000E+00
231  2.3000000000000E+00  0.0000000000000E+00  0.0000000000000E+00
232  2.3100000000000E+00  0.0000000000000E+00  0.0000000000000E+00
233  2.3200000000000E+00  0.0000000000000E+00  0.0000000000000E+00
234  2.3300000000000E+00  0.0000000000000E+00  0.0000000000000E+00
235  2.3400000000000E+00  0.0000000000000E+00  0.0000000000000E+00
236  2.3500000000000E+00  0.0000000000000E+00  0.0000000000000E+00
237  2.3600000000000E+00  0.0000000000000E+00  0.0000000000000E+00
238  2.3700000000000E+00  0.0000000000000E+00  0.0000000000000E+00
239  2.3800000000000E+00  0.0000000000000E+00  0.0000000000000E+00
240  2.3900000000000E+00  0.0000000000000E+00  0.0000000000000E+00
241  2.4000000000000E+00  0.0000000000000E+00  0.0000000000000E+00
242  2.4100000000000E+00  0.0000000000000E+00  0.0000000000000E+00
243  2.4200000000000E+00  0.0000000000000E+00  0.0000000000000E+00
244  2.4300000000000E+00  0.0000000000000E+00  0.0000000000000E+00
245  2.4400000000000E+00  0.0000000000000E+00  0.0000000000000E+00
246  2.4500000000000E+00  0.0000000000000E+00  0.0000000000000E+00
247  2.4600000000000E+00  0.0000000000000E+00  0.0000000000000E+00
248  2.4700000000000E+00  0.0000000000000E+00  0.0000000000000E+00
249  2.4800000000000E+00  0.0000000000000E+00  0.0000000000000E+00
250  2.4900000000000E+00  0.0000000000000E+00  0.0000000000000E+00
251  2.5000000000000E+00  0.0000000000000E+00  0.0000000000000E+00
252  2.5100000000000E+00  0.0000000000000E+00  0.0000000000000E+00
253  2.5200000000000E+00  0.0000000000000E+00  0.0000000000000E+00
254  2.5300000000000E+00  0.0000000000000E+00  0.0000000000000E+00
255  2.5400000000000E+00  0.0000000000000E+00  0.0000000000000E+00
256  2.5500000000000E+00  0.0000000000000E+00  0.0000000000000E+00
257  2.5600000000000E+00  0.0000000000000E+00  0.0000000000000E+00
258  2.5700000000000E+00  0.0000000000000E+00  0.0000000000000E+00
259  2.5800000000000E+00  0.0000000000000E+00  0.0000000000000E+00
260  2.5900000000000E+00  0.0000000000000E+00  0.0000000000000E+00
261  2.6000000000000E+00  0.0000000000000E+00  0.0000000000000E+00
262  2.6100000000000E+00  0.0000000000000E+00  0.0000000000000E+00
263  2.6200000000000E+00  0.0000000000000E+00  0.0000000000000E+00
264  2.6300000000000E+00  0.0000000000000E+00  0.0000000000000E+00
265  2.6400000000000E+00  0.0000000000000E+00  0.0000000000000E+00
266  2.6500000000000E+00  0.0000000000000E+00  0.0000000000000E+00
267  2.6600000000000E+00  0.0000000000000E+00  0.0000000000000E+00
268  2.6700000000000E+00  0.0000000000000E+00  0.0000000000000E+00
269  2.6800000000000E+00  0.0000000000000E+00  0.0000000000000E+00
270  2.6900000000000E+00  0.0000000000000E+00  0.0000000000000E+00
271  2.7000000000000E+00  0.0000000000000E+00  0.0000000000000E+00
272  2.7100000000000E+00  0.0000000000000E+00  0.0000000000000E+00
273  2.7200000000000E+00  0.0000000000000E+00  0.0000000000000E+00
274  2.7300000000000E+00  0.0000000000000E+00  0.0000000000000E+00
275  2.7400000000000E+00  0.0000000000000E+00  0.0000000000000E+00
276  2.7500000000000E+00  0.0000000000000E+00  0.0000000000000E+00
277  2.7600000000000E+00  0.0000000000000E+00  0.0000000000000E+00
278  2.7700000000000E+00  0.0000000000000E+00  0.0000000000000E+00
279  2.7800000000000E+00  0.0000000000000E+00  0.0000000000000E+00
280  2.7900000000000E+00  0.0000000000000E+00  0.0000000000000E+00
281  2.8000000000000E+00  0.0000000000000E+00  0.0000000000000E+00
282  2.8100000000000E+00  0.0000000000000E+00  0.0000000000000E+00
283  2.8200000000000E+00  0.0000000000000E+00  0.0000000000000E+00
284  2.8300000000000E+00  0.0000000000000E+00  0.0000000000000E+00
285  2.8400000000000E+00  0.0000000000000E+00  0.0000000000000E+00
286  2.8500000000000E+00  0.0000000000000E+00  0.0000000000000E+00
287  2.8600000000000E+00  0.0000000000000E+00  0.0000000000000E+00
288  2.8700000000000E+00  0.0000000000000E+00  0.0000000000000E+00
289  2.8800000000000E+00  0.0000000000000E+00  0.0000000000000E+00
290  2.8900000000000E+00  0.0000000000000E+00  0.0000000000000E+00
291  2.9000000000000E+00  0.0000000000000E+00  0.0000000000000E+00
292  2.9100000000000E+00  0.0000000000000E+00  0.0000000000000E+00
293  2.9200000000000E+00  0.0000000000000E+00  0.0000000000000E+00
294  2.9300000000000E+00  0.0000000000000E+00  0.0000000000000E+00
295  2.9400000000000E+00  0.0000000000000E+00  0.0000000000000E+00
296  2.9500000000000E+00  0.0000000000000E+00  0.0000000000000E+00
297  2.9600000000000E+00  0.0000000000000E+00  0.0000000000000E+00
298  2.9700000000000E+00  0.0000000000000E+00  0.0000000000000E+00
299  2.9800000000000E+00  0.0000000000000E+00  0.0000000000000E+00
300  2.9900000000000E+00  0.0000000000000E+00  0.0000000000000E+00
301  3.0000000000000E+00  0.0000000000000E+00  0.0000000000000E+00
302  3.0100000000000E+00  0.0000000000000E+00  0.0000000000000E+00
303  3.0200000000000E+00  0.0000000000000E+00  0.0000000000000E+00
304  3.0300000000000E+00  0.0000000000000E+00  0.0000000000000E+00
305  3.0400000000000E+00  0.0000000000000E+00  0.0000000000000E+00
306  3.0500000000000E+00  0.0000000000000E+00  0.0000000000000E+00
307  3.0600000000000E+00  0.0000000000000E+00  0.0000000000000E+00
308  3.0700000000000E+00  0.0000000000000E+00  0.0000000000000E+00
309  3.0800000000000E+00  0.0000000000000E+00  0.0000000000000E+00
310  3.0900000000000E+00  0.0000000000000E+00  0.0000000000000E+00
311  3.1000000000000E+00  0.0000000000000E+00  0.0000000000000E+00
312  3.1100000000000E+00  0.0000000000000E+00  0.0000000000000E+00
313  3.1200000000000E+00  0.0000000000000E+00  0.0000000000000E+00
314  3.1300000000000E+00  0.0000000000000E+00  0.0000000000000E+00
315  3.1400000000000E+00  0.0000000000000E+00  0.0000000000000E+00
316  3.1500000000000E+00  0.0000000000000E+00  0.0000000000000E+00
317  3.1600000000000E+00  0.0000000000000E+00  0.0000000000000E+00
318  3.1700000000000E+00  0.0000000000000E+00  0.0000000000000E+00
319  3.1800000000000E+00  0.0000000000000E+00  0.0000000000000E+00
320  3.1900000000000E+00  0.0000000000000E+00  0.0000000000000E+00
321  3.2000000000000E+00  0.0000000000000E+00  0.0000000000000E+00
322  3.2100000000000E+00  0.0000000000000E+00  0.0000000000000E+00
323  3.2200000000000E+00  0.0000000000000E+00  0.0000000000000E+00
324  3.2300000000000E+00  0.0000000000000E+00  0.0000000000000E+00
325  3.2400000000000E+00  0.0000000000000E+00  0.0000000000000E+00
326  3.2500000000000E+00  0.0000000000000E+00  0.0000000000000E+00
327  3.2600000000000E+00  0.0000000000000E+00  0.0000000000000E+00
328  3.2700000000000E+00  0.0000000000000E+00  0.0000000000000E+00
329  3.2800000000000E+00  0.0000000000000E+00  0.0000000000000E+00
330  3.2900000000000E+00  0.0000000000000E+00  0.0000000000000E+00
331  3.3000000000000E+00  0.0000000000000E+00  0.0000000000000E+00
332  3.3100000000000E+00  0.0000000000000E+00  0.0000000000000E+00
333  3.3200000000000E+00  0.0000000000000E+00  0.0000000000000E+00
334  3.3300000000000E+00  0.0000000000000E+00  0.0000000000000E+00
335  3.3400000000000E+00  0.0000000000000E+00  0.0000000000000E+00
336  3.3500000000000E+00  0.0000000000000E+00  0.0000000000000E+00
337  3.3600000000000E+00  0.0000000000000E+00  0.0000000000000E+00
338  3.3700000000000E+00  0.0000000000000E+00  0.0000000000000E+00
339  3.3800000000000E+00  0.0000000000000E+00  0.0000000000000E+00
340  3.3900000000000E+00  0.0000000000000E+00  0.0000000000000E+00
341  3.4000000000000E+00  0.0000000000000E+00  0.0000000000000E+00
342  3.4100000000000E+00  0.0000000000000E+00  0.0000000000000E+00
343  3.4200000000000E+00  0.0000000000000E+00  0.0000000000000E+00
344  3.4300000000000E+00  0.0000000000000E+00  0.0000000000000E+00
345  3.4400000000000E+00  0.0000000000000E+00  0.0000000000000E+00
346  3.4500000000000E+00  0.0000000000000E+00  0.0000000000000E+00
347  3.4600000000000E+00  0.0000000000000E+00  0.0000000000000E+00
348  3.4700000000000E+00  0.0000000000000E+00  0.0000000000000E+00
349  3.4800000000000E+00  0.0000000000000E+00  0.0000000000000E+00
350  3.4900000000000E+00  0.0000000000000E+00  0.0000000000000E+00
351  3.5000000000000E+00  0.0000000000000E+00  0.0000000000000E+00
352  3.5100000000000E+00  0.0000000000000E+00  0.0000000000000E+00
353  3.5200000000000E+00  0.0000000000000E+00  0.0000000000000E+00
354  3.5300000000000E+00  0.0000000000000E+00  0.0000000000000E+00
355  3.5400000000000E+00  0.0000000000000E+00  0.0000000000000E+00
356  3.5500000000000E+00  0.0000000000000E+00  0.0000000000000E+00
357  3.5600000000000E+00  0.0000000000000E+00  0.0000000000000E+00
358  3.5700000000000E+00  0.0000000000000E+00  0.0000000000000E+00
359  3.5800000000000E+00  0.0000000000000E+00  0.0000000000000E+00
360  3.5900000000000E+00  0.0000000000000E+00  0.0000000000000E+00
361  3.6000000000000E+00  0.0000000000000E+00  0.0000000000000E+00
362  3.6100000000000E+00  0.0000000000000E+00  0.0000000000000E+00
363  3.6200000000000E+00  0.0000000000000E+00  0.0000000000000E+00
364  3.6300000000000E+00  0.0000000000000E+00  0.0000000000000E+00
365  3.6400000000000E+00  0.0000000000000E+00  0.0000000000000E+00
366  3.6500000000000E+00  0.0000000000000E+00  0.0000000000000E+00
367  3.6600000000000E+00  0.0000000000000E+00  0.0000000000000E+00
368  3.6700000000000E+00  0.0000000000000E+00  0.0000000000000E+00
369  3.6800000000000E+00  0.0000000000000E+00  0.0000000000000E+00
370  3.6900000000000E+00  0.0000000000000E+00  0.0000000000000E+00
371  3.7000000000000E+00  0.0000000000000E+00  0.0000000000000E+00
372  3.7100000000000E+00  0.0000000000000E+00  0.0000000000000E+00
373  3.7200000000000E+00  0.0000000000000E+00  0.0000000000000E+00
374  3.7300000000000E+00  0.0000000000000E+00  0.0000000000000E+00
375  3.7400000000000E+00  0.0000000000000E+00  0.0000000000000E+00
376  3.7500000000000E+00  0.0000000000000E+00  0.0000000000000E+00
377  3.7600000000000E+00  0.0000000000000E+00  0.0000000000000E+00
378  3.7700000000000E+00  0.0000000000000E+00  0.0000000000000E+00
379  3.7800000000000E+00  0.0000000000000E+00  0.0000000000000E+00
380  3.7900000000000E+00  0.0000000000000E+00  0.0000000000000E+00
381  3.8000000000000E+00  0.0000000000000E+00  0.0000000000000E+00
382  3.8100000000000E+00  0.0000000000000E+00  0.0000000000000E+00
383  3.8200000000000E+00  0.0000000000000E+00  0.0000000000000E+00
384  3.8300000000000E+00  0.0000000000000E+00  0.0000000000000E+00
385  3.8400000000000E+00  0.0000000000000E+00  0.0000000000000E+00
386  3.8500000000000E+00  0.0000000000000E+00  0.0000000000000E+00
387  3.8600000000000E+00  0.0000000000000E+00  0.0000000000000E+00
388  3.8700000000000E+00  0.0000000000000E+00  0.0000000000000E+00
389  3.8800000000000E+00  0.0000000000000E+00  0.0000000000000E+00
390  3.8900000000000E+00  0.0000000000000E+00  0.0000000000000E+00
391  3.9000000000000E+00  0.0000000000000E+00  0.0000000000000E+00
392  3.9100000000000E+00  0.0000000000000E+00  0.0000000000000E+00
393  3.9200000000000E+00  0.0000000000000E+00  0.0000000000000E+00
394  3.9300000000000E+00  0.0000000000000E+00  0.0000000000000E+00
395  3.9400000000000E+00  0.0000000000000E+00  0.0000000000000E+00
396  3.9500000000000E+00  0.0000000000000E+00  0.0000000000000E+00
397  3.9600000000000E+00  0.0000000000000E+00  0.0000000000000E+00
398  3.9700000000000E+00  0.0000000000000E+00  0.0000000000000E+00
399  3.9800000000000E+00  0.0000000000000E+00  0.0000000000000E+00
400  3.9900000000000E+00  0.0000000000000E+00  0.0000000000000E+00
401  4.0000000000000E+00  0.0000000000000E+00  0.0000000000000E+00
402  4.0100000000000E+00  0.0000000000000E+00  0.0000000000000E+00
403  4.0200000000000E+00  0.0000000000000E+00  0.0000000000000E+00
404  4.0300000000000E+00  0.0000000000000E+00  0.0000000000000E+00
405  4.0400000000000E+00  0.0000000000000E+00  0.0000000000000E+00
406  4.0500000000000E+00  0.0000000000000E+00  0.0000000000000E+00
407  4.0600000000000E+00  0.0000000000000E+00  0.0000000000000E+00
408  4.0700000000000E+00  0.0000000000000E+00  0.0000000000000E+00
409  4.0800000000000E+00  0.0000000000000E+00  0.0000000000000E+00
410  4.0900000000000E+00  0.0000000000000E+00  0.0000000000000E+00
411  4.1000000000000E+00  0.0000000000000E+00  0.0000000000000E+00
412  4.1100000000000E+00  0.0000000000000E+00  0.0000000000000E+00
413  4.1200000000000E+00  0.0000000000000E+00  0.0000000000000E+00
414  4.1300000000000E+00  0.0000000000000E+00  0.0000000000000E+00
415  4.1400000000000E+00  0.0000000000000E+00  0.0000000000000E+00
416  4.1500000000000E+00  0.0000000000000E+00  0.0000000000000E+00
417  4.1600000000000E+00  0.0000000000000E+00  0.0000000000000E+00
418  4.1700000000000E+00  0.0000000000000E+00  0.0000000000000E+00
419  4.1800000000000E+00  0.0000000000000E+00  0.0000000000000E+00
420  4.1900000000000E+00  0.0000000000000E+00  0.0000000000000E+00
421  4.2000000000000E+00  0.0000000000000E+00  0.0000000000000E+00
422  4.2100000000000E+00  0.0000000000000E+00  0.0000000000000E+00
423  4.2200000000000E+00  0.0000000000000E+00  0.0000000000000E+00
424  4.2300000000000E+00  0.0000000000000E+00  0.0000000000000E+00
425  4.2400000000000E+00  0.0000000000000E+00  0.0000000000000E+00
426  4.2500000000000E+00  0.0000000000000E+00  0.0000000000000E+00
427  4.2600000000000E+00  0.0000000000000E+00  0.0000000000000E+00
428  4.2700000000000E+00  0.0000000000000E+00  0.0000000000000E+00
429  4.2800000000000E+00  0.0000000000000E+00  0.0000000000000E+00
430  4.2900000000000E+00  0.0000000000000E+00  0.0000000000000E+00
431  4.3000000000000E+00  0.0000000000000E+00  0.0000000000000E+00
432  4.3100000000000E+00  0.0000000000000E+00  0.0000000000000E+00
433  4.3200000000000E+00  0.0000000000000E+00  0.0000000000000E+00
434  4.3300000000000E+00  0.0000000000000E+00  0.0000000000000E+00
435  4.3400000000000E+00  0.0000000000000E+00  0.0000000000000E+00
436  4.3500000000000E+00  0.0000000000000E+00  0.0000000000000E+00
437  4.3600000000000E+00  0.0000000000000E+00  0.0000000000000E+00
438  4.3700000000000E+00  0.0000000000000E+00  0.0000000000000E+00
439  4.3800000000000E+00  0.0000000000000E+00  0.0000000000000E+00
440  4.3900000000000E+00  0.0000000000000E+00  0.0000000000000E+00
441  4.4000000000000E+00  0.0000000000000E+00  0.0000000000000E+00
442  4.4100000000000E+00  0.0000000000000E+00  0.0000000000000E+00
443  4.4200000000000E+00  0.0000000000000E+00  0.0000000000000E+00