Au    ONCVPSP-3.2.3.1  r_core=   1.45604   1.56407   1.56407   1.60183
79.0000     19.0000      170503    zatom,zion,pspd
8      11   3     4   500     0    pspcod,pspxc,lmax,lloc,mmax,r2well
4.99000000  5.00000000  0.00000000    rchrg fchrg qchrg
2     2     2     1     0    nproj
1     1           extension_switch
0                         9.4078840879135E+00 -1.9525321881850E-01
1  0.0000000000000E+00 -5.1810866708024E-10 -5.3937825317263E-09
2  1.0000000000000E-02  8.0794012252915E-02  4.6788902079206E-02
3  2.0000000000000E-02  1.6136784290255E-01  9.3108969877851E-02
4  3.0000000000000E-02  2.4150234896010E-01  1.3849771083307E-01
5  4.0000000000000E-02  3.2098045737042E-01  1.8250520290019E-01
6  5.0000000000000E-02  3.9958818010498E-01  2.2470011806325E-01
7  6.0000000000000E-02  4.7711560400008E-01  2.6467545536815E-01
8  7.0000000000000E-02  5.5335784672783E-01  3.0205390250979E-01
9  8.0000000000000E-02  6.2811597080532E-01  3.3649275039881E-01
10  9.0000000000000E-02  7.0119784815276E-01  3.6768829169003E-01
11  1.0000000000000E-01  7.7241896839481E-01  3.9537964186729E-01
12  1.1000000000000E-01  8.4160318485153E-01  4.1935193002655E-01
13  1.2000000000000E-01  9.0858339297487E-01  4.3943881584478E-01
14  1.3000000000000E-01  9.7320213684392E-01  4.5552429921975E-01
15  1.4000000000000E-01  1.0353121402233E+00  4.6754379956125E-01
16  1.5000000000000E-01  1.0947767596042E+00  4.7548449254364E-01
17  1.6000000000000E-01  1.1514703575730E+00  4.7938490312910E-01
18  1.7000000000000E-01  1.2052785957776E+00  4.7933376467121E-01
19  1.8000000000000E-01  1.2560986476719E+00  4.7546816474479E-01
20  1.9000000000000E-01  1.3038393321057E+00  4.6797100885582E-01
21  2.0000000000000E-01  1.3484211696800E+00  4.5706784320878E-01
22  2.1000000000000E-01  1.3897763645878E+00  4.4302308709791E-01
23  2.2000000000000E-01  1.4278487154131E+00  4.2613573410551E-01
24  2.3000000000000E-01  1.4625934590422E+00  4.0673458900799E-01
25  2.4000000000000E-01  1.4939770524511E+00  3.8517311399512E-01
26  2.5000000000000E-01  1.5219768976661E+00  3.6182396340557E-01
27  2.6000000000000E-01  1.5465810156392E+00  3.3707329058769E-01
28  2.7000000000000E-01  1.5677876751387E+00  3.1131491365190E-01
29  2.8000000000000E-01  1.5856049830170E+00  2.8494442874041E-01
30  2.9000000000000E-01  1.6000504423924E+00  2.5835335998147E-01
31  3.0000000000000E-01  1.6111504853535E+00  2.3192343451164E-01
32  3.1000000000000E-01  1.6189399867805E+00  2.0602106885393E-01
33  3.2000000000000E-01  1.6234617657675E+00  1.8099214956881E-01
34  3.3000000000000E-01  1.6247660809337E+00  1.5715718649574E-01
35  3.4000000000000E-01  1.6229101256297E+00  1.3480691114908E-01
36  3.5000000000000E-01  1.6179575286890E+00  1.1419838600569E-01
37  3.6000000000000E-01  1.6099778659449E+00  9.5551682626134E-02
38  3.7000000000000E-01  1.5990461872386E+00  7.9047177899555E-02
39  3.8000000000000E-01  1.5852425630986E+00  6.4823508321058E-02
40  3.9000000000000E-01  1.5686516546767E+00  5.2976212238375E-02
41  4.0000000000000E-01  1.5493623098936E+00  4.3557079583275E-02
42  4.1000000000000E-01  1.5274671880911E+00  3.6574217886638E-02
43  4.2000000000000E-01  1.5030624148134E+00  3.1992832517711E-02
44  4.3000000000000E-01  1.4762472676594E+00  2.9736708246793E-02
45  4.4000000000000E-01  1.4471238934725E+00  2.9690368559416E-02
46  4.5000000000000E-01  1.4157970564729E+00  3.1701878808400E-02
47  4.6000000000000E-01  1.3823739162976E+00  3.5586249422768E-02
48  4.7000000000000E-01  1.3469638343137E+00  4.1129386145286E-02
49  4.8000000000000E-01  1.3096782060048E+00  4.8092525777393E-02
50  4.9000000000000E-01  1.2706303167221E+00  5.6217088293822E-02
51  5.0000000000000E-01  1.2299352176388E+00  6.5229869563317E-02
52  5.1000000000000E-01  1.1877096183563E+00  7.4848493374790E-02
53  5.2000000000000E-01  1.1440717922963E+00  8.4787037099719E-02
54  5.3000000000000E-01  1.0991414907658E+00  9.4761742193949E-02
55  5.4000000000000E-01  1.0530398614192E+00  1.0449671890331E-01
56  5.5000000000000E-01  1.0058893667552E+00  1.1372955401595E-01
57  5.6000000000000E-01  9.5781369828488E-01  1.2221673132489E-01
58  5.7000000000000E-01  9.0893768208203E-01  1.2973877660494E-01
59  5.8000000000000E-01  8.5938717158881E-01  1.3610504237406E-01
60  5.9000000000000E-01  8.0928892378172E-01  1.4115805241589E-01
61  6.0000000000000E-01  7.5877045511619E-01  1.4477733199137E-01
62  6.1000000000000E-01  7.0795987404525E-01  1.4688265670909E-01
63  6.2000000000000E-01  6.5698568735232E-01  1.4743666114121E-01
64  6.3000000000000E-01  6.0597657803913E-01  1.4644675731425E-01
65  6.4000000000000E-01  5.5506115305816E-01  1.4396632302248E-01
66  6.5000000000000E-01  5.0436765977386E-01  1.4009513048575E-01
67  6.6000000000000E-01  4.5402367065975E-01  1.3497899691038E-01
68  6.7000000000000E-01  4.0415573638552E-01  1.2880864995262E-01
69  6.8000000000000E-01  3.5488900811200E-01  1.2181781279579E-01
70  6.9000000000000E-01  3.0634683047458E-01  1.1428052527280E-01
71  7.0000000000000E-01  2.5865030739276E-01  1.0650772908276E-01
72  7.1000000000000E-01  2.1191784348485E-01  9.8843156551917E-02
73  7.2000000000000E-01  1.6626466447951E-01  9.1658573310268E-02
74  7.3000000000000E-01  1.2180232059079E-01  8.5348435593995E-02
75  7.4000000000000E-01  7.8638177353284E-02  8.0324032497388E-02
76  7.5000000000000E-01  3.6874898886098E-02  7.7007192180133E-02
77  7.6000000000000E-01 -3.3900710337721E-03  7.5823638752747E-02
78  7.7000000000000E-01 -4.2065024370443E-02  7.7196093084632E-02
79  7.8000000000000E-01 -7.9064494720373E-02  8.1537216069249E-02
80  7.9000000000000E-01 -1.1430974753695E-01  8.9242496827731E-02
81  8.0000000000000E-01 -1.4772924843800E-01  1.0068319086002E-01
82  8.1000000000000E-01 -1.7925910334448E-01  1.1619941420910E-01
83  8.2000000000000E-01 -2.0884346428944E-01  1.3609349925377E-01
84  8.3000000000000E-01 -2.3643489491998E-01  1.6062371577581E-01
85  8.4000000000000E-01 -2.6199468999024E-01  1.8999845746094E-01
86  8.5000000000000E-01 -2.8549314350914E-01  2.2437098902376E-01
87  8.6000000000000E-01 -3.0690976065843E-01  2.6383484273514E-01
88  8.7000000000000E-01 -3.2623340913033E-01  3.0841994535734E-01
89  8.8000000000000E-01 -3.4346240614401E-01  3.5808954743566E-01
90  8.9000000000000E-01 -3.5860453807815E-01  4.1273801667578E-01
91  9.0000000000000E-01 -3.7167701039623E-01  4.7218954587327E-01
92  9.1000000000000E-01 -3.8270632633122E-01  5.3619781370390E-01
93  9.2000000000000E-01 -3.9172809362763E-01  6.0444662378936E-01
94  9.3000000000000E-01 -3.9878675950047E-01  6.7655153399318E-01
95  9.4000000000000E-01 -4.0393527485082E-01  7.5206247406019E-01
96  9.5000000000000E-01 -4.0723468966424E-01  8.3046733568177E-01
97  9.6000000000000E-01 -4.0875368239918E-01  9.1119650504263E-01
98  9.7000000000000E-01 -4.0856802703435E-01  9.9362829409884E-01
99  9.8000000000000E-01 -4.0676000227914E-01  1.0770952133662E+00
100  9.9000000000000E-01 -4.0341774823546E-01  1.1608910162624E+00
101  1.0000000000000E+00 -3.9863457652876E-01  1.2442784331031E+00
102  1.0100000000000E+00 -3.9250824060857E-01  1.3264975015771E+00
103  1.0200000000000E+00 -3.8514017349318E-01  1.4067743909053E+00
104  1.0300000000000E+00 -3.7663470074398E-01  1.4843306082156E+00
105  1.0400000000000E+00 -3.6709823686226E-01  1.5583924685815E+00
106  1.0500000000000E+00 -3.5663847360348E-01  1.6282007046797E+00
107  1.0600000000000E+00 -3.4536356889975E-01  1.6930200882705E+00
108  1.0700000000000E+00 -3.3338134517285E-01  1.7521489334170E+00
109  1.0800000000000E+00 -3.2079850577455E-01  1.8049283513679E+00
110  1.0900000000000E+00 -3.0771987814298E-01  1.8507511285621E+00
111  1.1000000000000E+00 -2.9424769196730E-01  1.8890701030898E+00
112  1.1100000000000E+00 -2.8048090033729E-01  1.9194059192364E+00
113  1.1200000000000E+00 -2.6651455125928E-01  1.9413540482270E+00
114  1.1300000000000E+00 -2.5243921638917E-01  1.9545909710381E+00
115  1.1400000000000E+00 -2.3834048298756E-01  1.9588794316523E+00
116  1.1500000000000E+00 -2.2429851457687E-01  1.9540726769264E+00
117  1.1600000000000E+00 -2.1038768456083E-01  1.9401176175870E+00
118  1.1700000000000E+00 -1.9667628631344E-01  1.9170568563086E+00
119  1.1800000000000E+00 -1.8322632208471E-01  1.8850295464856E+00
120  1.1900000000000E+00 -1.7009337230733E-01  1.8442710569407E+00
121  1.2000000000000E+00 -1.5732654536428E-01  1.7951114412107E+00
122  1.2100000000000E+00 -1.4496850692524E-01  1.7379727247594E+00
123  1.2200000000000E+00 -1.3305558712618E-01  1.6733650363055E+00
124  1.2300000000000E+00 -1.2161796236613E-01  1.6018816326702E+00
125  1.2400000000000E+00 -1.1067990746609E-01  1.5241928825673E+00
126  1.2500000000000E+00 -1.0026011317099E-01  1.4410392866445E+00
127  1.2600000000000E+00 -9.0372062880748E-02  1.3532236281121E+00
128  1.2700000000000E+00 -8.1024461291408E-02  1.2616023671668E+00
129  1.2800000000000E+00 -7.2221707289298E-02  1.1670763977121E+00
130  1.2900000000000E+00 -6.3964402557758E-02  1.0705812986952E+00
131  1.3000000000000E+00 -5.6249886439964E-02  9.7307722680933E-01
132  1.3100000000000E+00 -4.9072787663221E-02  8.7553859634813E-01
133  1.3200000000000E+00 -4.2425582746546E-02  7.7894370432206E-01
134  1.3300000000000E+00 -3.6299150827042E-02  6.8426446038898E-01
135  1.3400000000000E+00 -3.0683314690317E-02  5.9245638033756E-01
136  1.3500000000000E+00 -2.5567357425747E-02  5.0444900768690E-01
137  1.3600000000000E+00 -2.0940503779983E-02  4.2113694910922E-01
138  1.3700000000000E+00 -1.6792364453865E-02  3.4337144791756E-01
139  1.3800000000000E+00 -1.3113298405365E-02  2.7195359559993E-01
140  1.3900000000000E+00 -9.8948234027234E-03  2.0762569429740E-01
141  1.4000000000000E+00 -7.1297038210700E-03  1.5107029937773E-01
142  1.4100000000000E+00 -4.8132816674781E-03  1.0293096784835E-01
143  1.4200000000000E+00 -2.9394269099365E-03  6.3668981843294E-02
144  1.4300000000000E+00 -1.5018643985917E-03  3.3522834475931E-02
145  1.4400000000000E+00 -5.3452018072552E-04  1.3499497147066E-02
146  1.4500000000000E+00 -3.8317555271609E-05  3.5024740868153E-03
147  1.4600000000000E+00  9.1068271836522E-05  1.5887766930429E-04
148  1.4700000000000E+00  2.9057268536980E-05 -1.3345301964492E-04
149  1.4800000000000E+00 -1.8572344260892E-05  1.1517963684851E-04
150  1.4900000000000E+00 -3.3453614445583E-06  2.3876474239482E-05
151  1.5000000000000E+00  3.7851067206314E-06 -1.7759006143550E-05
152  1.5100000000000E+00 -4.0064597002810E-08 -5.1031075485444E-07
153  1.5200000000000E+00 -1.9805039947088E-07 -2.5226073993985E-06
154  1.5300000000000E+00  0.0000000000000E+00  0.0000000000000E+00
155  1.5400000000000E+00  0.0000000000000E+00  0.0000000000000E+00
156  1.5500000000000E+00  0.0000000000000E+00  0.0000000000000E+00
157  1.5600000000000E+00  0.0000000000000E+00  0.0000000000000E+00
158  1.5700000000000E+00  0.0000000000000E+00  0.0000000000000E+00
159  1.5800000000000E+00  0.0000000000000E+00  0.0000000000000E+00
160  1.5900000000000E+00  0.0000000000000E+00  0.0000000000000E+00
161  1.6000000000000E+00  0.0000000000000E+00  0.0000000000000E+00
162  1.6100000000000E+00  0.0000000000000E+00  0.0000000000000E+00
163  1.6200000000000E+00  0.0000000000000E+00  0.0000000000000E+00
164  1.6300000000000E+00  0.0000000000000E+00  0.0000000000000E+00
165  1.6400000000000E+00  0.0000000000000E+00  0.0000000000000E+00
166  1.6500000000000E+00  0.0000000000000E+00  0.0000000000000E+00
167  1.6600000000000E+00  0.0000000000000E+00  0.0000000000000E+00
168  1.6700000000000E+00  0.0000000000000E+00  0.0000000000000E+00
169  1.6800000000000E+00  0.0000000000000E+00  0.0000000000000E+00
170  1.6900000000000E+00  0.0000000000000E+00  0.0000000000000E+00
171  1.7000000000000E+00  0.0000000000000E+00  0.0000000000000E+00
172  1.7100000000000E+00  0.0000000000000E+00  0.0000000000000E+00
173  1.7200000000000E+00  0.0000000000000E+00  0.0000000000000E+00
174  1.7300000000000E+00  0.0000000000000E+00  0.0000000000000E+00
175  1.7400000000000E+00  0.0000000000000E+00  0.0000000000000E+00
176  1.7500000000000E+00  0.0000000000000E+00  0.0000000000000E+00
177  1.7600000000000E+00  0.0000000000000E+00  0.0000000000000E+00
178  1.7700000000000E+00  0.0000000000000E+00  0.0000000000000E+00
179  1.7800000000000E+00  0.0000000000000E+00  0.0000000000000E+00
180  1.7900000000000E+00  0.0000000000000E+00  0.0000000000000E+00
181  1.8000000000000E+00  0.0000000000000E+00  0.0000000000000E+00
182  1.8100000000000E+00  0.0000000000000E+00  0.0000000000000E+00
183  1.8200000000000E+00  0.0000000000000E+00  0.0000000000000E+00
184  1.8300000000000E+00  0.0000000000000E+00  0.0000000000000E+00
185  1.8400000000000E+00  0.0000000000000E+00  0.0000000000000E+00
186  1.8500000000000E+00  0.0000000000000E+00  0.0000000000000E+00
187  1.8600000000000E+00  0.0000000000000E+00  0.0000000000000E+00
188  1.8700000000000E+00  0.0000000000000E+00  0.0000000000000E+00
189  1.8800000000000E+00  0.0000000000000E+00  0.0000000000000E+00
190  1.8900000000000E+00  0.0000000000000E+00  0.0000000000000E+00
191  1.9000000000000E+00  0.0000000000000E+00  0.0000000000000E+00
192  1.9100000000000E+00  0.0000000000000E+00  0.0000000000000E+00
193  1.9200000000000E+00  0.0000000000000E+00  0.0000000000000E+00
194  1.9300000000000E+00  0.0000000000000E+00  0.0000000000000E+00
195  1.9400000000000E+00  0.0000000000000E+00  0.0000000000000E+00
196  1.9500000000000E+00  0.0000000000000E+00  0.0000000000000E+00
197  1.9600000000000E+00  0.0000000000000E+00  0.0000000000000E+00
198  1.9700000000000E+00  0.0000000000000E+00  0.0000000000000E+00
199  1.9800000000000E+00  0.0000000000000E+00  0.0000000000000E+00
200  1.9900000000000E+00  0.0000000000000E+00  0.0000000000000E+00
201  2.0000000000000E+00  0.0000000000000E+00  0.0000000000000E+00
202  2.0100000000000E+00  0.0000000000000E+00  0.0000000000000E+00
203  2.0200000000000E+00  0.0000000000000E+00  0.0000000000000E+00
204  2.0300000000000E+00  0.0000000000000E+00  0.0000000000000E+00
205  2.0400000000000E+00  0.0000000000000E+00  0.0000000000000E+00
206  2.0500000000000E+00  0.0000000000000E+00  0.0000000000000E+00
207  2.0600000000000E+00  0.0000000000000E+00  0.0000000000000E+00
208  2.0700000000000E+00  0.0000000000000E+00  0.0000000000000E+00
209  2.0800000000000E+00  0.0000000000000E+00  0.0000000000000E+00
210  2.0900000000000E+00  0.0000000000000E+00  0.0000000000000E+00
211  2.1000000000000E+00  0.0000000000000E+00  0.0000000000000E+00
212  2.1100000000000E+00  0.0000000000000E+00  0.0000000000000E+00
213  2.1200000000000E+00  0.0000000000000E+00  0.0000000000000E+00
214  2.1300000000000E+00  0.0000000000000E+00  0.0000000000000E+00
215  2.1400000000000E+00  0.0000000000000E+00  0.0000000000000E+00
216  2.1500000000000E+00  0.0000000000000E+00  0.0000000000000E+00
217  2.1600000000000E+00  0.0000000000000E+00  0.0000000000000E+00
218  2.1700000000000E+00  0.0000000000000E+00  0.0000000000000E+00
219  2.1800000000000E+00  0.0000000000000E+00  0.0000000000000E+00
220  2.1900000000000E+00  0.0000000000000E+00  0.0000000000000E+00
221  2.2000000000000E+00  0.0000000000000E+00  0.0000000000000E+00
222  2.2100000000000E+00  0.0000000000000E+00  0.0000000000000E+00
223  2.2200000000000E+00  0.0000000000000E+00  0.0000000000000E+00
224  2.2300000000000E+00  0.0000000000000E+00  0.0000000000000E+00
225  2.2400000000000E+00  0.0000000000000E+00  0.0000000000000E+00
226  2.2500000000000E+00  0.0000000000000E+00  0.0000000000000E+00
227  2.2600000000000E+00  0.0000000000000E+00  0.0000000000000E+00
228  2.2700000000000E+00  0.0000000000000E+00  0.0000000000000E+00
229  2.2800000000000E+00  0.0000000000000E+00  0.0000000000000E+00
230  2.2900000000000E+00  0.0000000000000E+00  0.0000000000000E+00
231  2.3000000000000E+00  0.0000000000000E+00  0.0000000000000E+00
232  2.3100000000000E+00  0.0000000000000E+00  0.0000000000000E+00
233  2.3200000000000E+00  0.0000000000000E+00  0.0000000000000E+00
234  2.3300000000000E+00  0.0000000000000E+00  0.0000000000000E+00
235  2.3400000000000E+00  0.0000000000000E+00  0.0000000000000E+00
236  2.3500000000000E+00  0.0000000000000E+00  0.0000000000000E+00
237  2.3600000000000E+00  0.0000000000000E+00  0.0000000000000E+00
238  2.3700000000000E+00  0.0000000000000E+00  0.0000000000000E+00
239  2.3800000000000E+00  0.0000000000000E+00  0.0000000000000E+00
240  2.3900000000000E+00  0.0000000000000E+00  0.0000000000000E+00
241  2.4000000000000E+00  0.0000000000000E+00  0.0000000000000E+00
242  2.4100000000000E+00  0.0000000000000E+00  0.0000000000000E+00
243  2.4200000000000E+00  0.0000000000000E+00  0.0000000000000E+00
244  2.4300000000000E+00  0.0000000000000E+00  0.0000000000000E+00
245  2.4400000000000E+00  0.0000000000000E+00  0.0000000000000E+00
246  2.4500000000000E+00  0.0000000000000E+00  0.0000000000000E+00
247  2.4600000000000E+00  0.0000000000000E+00  0.0000000000000E+00
248  2.4700000000000E+00  0.0000000000000E+00  0.0000000000000E+00
249  2.4800000000000E+00  0.0000000000000E+00  0.0000000000000E+00
250  2.4900000000000E+00  0.0000000000000E+00  0.0000000000000E+00
251  2.5000000000000E+00  0.0000000000000E+00  0.0000000000000E+00
252  2.5100000000000E+00  0.0000000000000E+00  0.0000000000000E+00
253  2.5200000000000E+00  0.0000000000000E+00  0.0000000000000E+00
254  2.5300000000000E+00  0.0000000000000E+00  0.0000000000000E+00
255  2.5400000000000E+00  0.0000000000000E+00  0.0000000000000E+00
256  2.5500000000000E+00  0.0000000000000E+00  0.0000000000000E+00
257  2.5600000000000E+00  0.0000000000000E+00  0.0000000000000E+00
258  2.5700000000000E+00  0.0000000000000E+00  0.0000000000000E+00
259  2.5800000000000E+00  0.0000000000000E+00  0.0000000000000E+00
260  2.5900000000000E+00  0.0000000000000E+00  0.0000000000000E+00
261  2.6000000000000E+00  0.0000000000000E+00  0.0000000000000E+00
262  2.6100000000000E+00  0.0000000000000E+00  0.0000000000000E+00
263  2.6200000000000E+00  0.0000000000000E+00  0.0000000000000E+00
264  2.6300000000000E+00  0.0000000000000E+00  0.0000000000000E+00
265  2.6400000000000E+00  0.0000000000000E+00  0.0000000000000E+00
266  2.6500000000000E+00  0.0000000000000E+00  0.0000000000000E+00
267  2.6600000000000E+00  0.0000000000000E+00  0.0000000000000E+00
268  2.6700000000000E+00  0.0000000000000E+00  0.0000000000000E+00
269  2.6800000000000E+00  0.0000000000000E+00  0.0000000000000E+00
270  2.6900000000000E+00  0.0000000000000E+00  0.0000000000000E+00
271  2.7000000000000E+00  0.0000000000000E+00  0.0000000000000E+00
272  2.7100000000000E+00  0.0000000000000E+00  0.0000000000000E+00
273  2.7200000000000E+00  0.0000000000000E+00  0.0000000000000E+00
274  2.7300000000000E+00  0.0000000000000E+00  0.0000000000000E+00
275  2.7400000000000E+00  0.0000000000000E+00  0.0000000000000E+00
276  2.7500000000000E+00  0.0000000000000E+00  0.0000000000000E+00
277  2.7600000000000E+00  0.0000000000000E+00  0.0000000000000E+00
278  2.7700000000000E+00  0.0000000000000E+00  0.0000000000000E+00
279  2.7800000000000E+00  0.0000000000000E+00  0.0000000000000E+00
280  2.7900000000000E+00  0.0000000000000E+00  0.0000000000000E+00
281  2.8000000000000E+00  0.0000000000000E+00  0.0000000000000E+00
282  2.8100000000000E+00  0.0000000000000E+00  0.0000000000000E+00
283  2.8200000000000E+00  0.0000000000000E+00  0.0000000000000E+00
284  2.8300000000000E+00  0.0000000000000E+00  0.0000000000000E+00
285  2.8400000000000E+00  0.0000000000000E+00  0.0000000000000E+00
286  2.8500000000000E+00  0.0000000000000E+00  0.0000000000000E+00
287  2.8600000000000E+00  0.0000000000000E+00  0.0000000000000E+00
288  2.8700000000000E+00  0.0000000000000E+00  0.0000000000000E+00
289  2.8800000000000E+00  0.0000000000000E+00  0.0000000000000E+00
290  2.8900000000000E+00  0.0000000000000E+00  0.0000000000000E+00
291  2.9000000000000E+00  0.0000000000000E+00  0.0000000000000E+00
292  2.9100000000000E+00  0.0000000000000E+00  0.0000000000000E+00
293  2.9200000000000E+00  0.0000000000000E+00  0.0000000000000E+00
294  2.9300000000000E+00  0.0000000000000E+00  0.0000000000000E+00
295  2.9400000000000E+00  0.0000000000000E+00  0.0000000000000E+00
296  2.9500000000000E+00  0.0000000000000E+00  0.0000000000000E+00
297  2.9600000000000E+00  0.0000000000000E+00  0.0000000000000E+00
298  2.9700000000000E+00  0.0000000000000E+00  0.0000000000000E+00
299  2.9800000000000E+00  0.0000000000000E+00  0.0000000000000E+00
300  2.9900000000000E+00  0.0000000000000E+00  0.0000000000000E+00
301  3.0000000000000E+00  0.0000000000000E+00  0.0000000000000E+00
302  3.0100000000000E+00  0.0000000000000E+00  0.0000000000000E+00
303  3.0200000000000E+00  0.0000000000000E+00  0.0000000000000E+00
304  3.0300000000000E+00  0.0000000000000E+00  0.0000000000000E+00
305  3.0400000000000E+00  0.0000000000000E+00  0.0000000000000E+00
306  3.0500000000000E+00  0.0000000000000E+00  0.0000000000000E+00
307  3.0600000000000E+00  0.0000000000000E+00  0.0000000000000E+00
308  3.0700000000000E+00  0.0000000000000E+00  0.0000000000000E+00
309  3.0800000000000E+00  0.0000000000000E+00  0.0000000000000E+00
310  3.0900000000000E+00  0.0000000000000E+00  0.0000000000000E+00
311  3.1000000000000E+00  0.0000000000000E+00  0.0000000000000E+00
312  3.1100000000000E+00  0.0000000000000E+00  0.0000000000000E+00
313  3.1200000000000E+00  0.0000000000000E+00  0.0000000000000E+00
314  3.1300000000000E+00  0.0000000000000E+00  0.0000000000000E+00
315  3.1400000000000E+00  0.0000000000000E+00  0.0000000000000E+00
316  3.1500000000000E+00  0.0000000000000E+00  0.0000000000000E+00
317  3.1600000000000E+00  0.0000000000000E+00  0.0000000000000E+00
318  3.1700000000000E+00  0.0000000000000E+00  0.0000000000000E+00
319  3.1800000000000E+00  0.0000000000000E+00  0.0000000000000E+00
320  3.1900000000000E+00  0.0000000000000E+00  0.0000000000000E+00
321  3.2000000000000E+00  0.0000000000000E+00  0.0000000000000E+00
322  3.2100000000000E+00  0.0000000000000E+00  0.0000000000000E+00
323  3.2200000000000E+00  0.0000000000000E+00  0.0000000000000E+00
324  3.2300000000000E+00  0.0000000000000E+00  0.0000000000000E+00
325  3.2400000000000E+00  0.0000000000000E+00  0.0000000000000E+00
326  3.2500000000000E+00  0.0000000000000E+00  0.0000000000000E+00
327  3.2600000000000E+00  0.0000000000000E+00  0.0000000000000E+00
328  3.2700000000000E+00  0.0000000000000E+00  0.0000000000000E+00
329  3.2800000000000E+00  0.0000000000000E+00  0.0000000000000E+00
330  3.2900000000000E+00  0.0000000000000E+00  0.0000000000000E+00
331  3.3000000000000E+00  0.0000000000000E+00  0.0000000000000E+00
332  3.3100000000000E+00  0.0000000000000E+00  0.0000000000000E+00
333  3.3200000000000E+00  0.0000000000000E+00  0.0000000000000E+00
334  3.3300000000000E+00  0.0000000000000E+00  0.0000000000000E+00
335  3.3400000000000E+00  0.0000000000000E+00  0.0000000000000E+00
336  3.3500000000000E+00  0.0000000000000E+00  0.0000000000000E+00
337  3.3600000000000E+00  0.0000000000000E+00  0.0000000000000E+00
338  3.3700000000000E+00  0.0000000000000E+00  0.0000000000000E+00
339  3.3800000000000E+00  0.0000000000000E+00  0.0000000000000E+00
340  3.3900000000000E+00  0.0000000000000E+00  0.0000000000000E+00
341  3.4000000000000E+00  0.0000000000000E+00  0.0000000000000E+00
342  3.4100000000000E+00  0.0000000000000E+00  0.0000000000000E+00
343  3.4200000000000E+00  0.0000000000000E+00  0.0000000000000E+00
344  3.4300000000000E+00  0.0000000000000E+00  0.0000000000000E+00
345  3.4400000000000E+00  0.0000000000000E+00  0.0000000000000E+00
346  3.4500000000000E+00  0.0000000000000E+00  0.0000000000000E+00
347  3.4600000000000E+00  0.0000000000000E+00  0.0000000000000E+00
348  3.4700000000000E+00  0.0000000000000E+00  0.0000000000000E+00
349  3.4800000000000E+00  0.0000000000000E+00  0.0000000000000E+00
350  3.4900000000000E+00  0.0000000000000E+00  0.0000000000000E+00
351  3.5000000000000E+00  0.0000000000000E+00  0.0000000000000E+00
352  3.5100000000000E+00  0.0000000000000E+00  0.0000000000000E+00
353  3.5200000000000E+00  0.0000000000000E+00  0.0000000000000E+00
354  3.5300000000000E+00  0.0000000000000E+00  0.0000000000000E+00
355  3.5400000000000E+00  0.0000000000000E+00  0.0000000000000E+00
356  3.5500000000000E+00  0.0000000000000E+00  0.0000000000000E+00
357  3.5600000000000E+00  0.0000000000000E+00  0.0000000000000E+00
358  3.5700000000000E+00  0.0000000000000E+00  0.0000000000000E+00
359  3.5800000000000E+00  0.0000000000000E+00  0.0000000000000E+00
360  3.5900000000000E+00  0.0000000000000E+00  0.0000000000000E+00
361  3.6000000000000E+00  0.0000000000000E+00  0.0000000000000E+00
362  3.6100000000000E+00  0.0000000000000E+00  0.0000000000000E+00
363  3.6200000000000E+00  0.0000000000000E+00  0.0000000000000E+00
364  3.6300000000000E+00  0.0000000000000E+00  0.0000000000000E+00
365  3.6400000000000E+00  0.0000000000000E+00  0.0000000000000E+00
366  3.6500000000000E+00  0.0000000000000E+00  0.0000000000000E+00
367  3.6600000000000E+00  0.0000000000000E+00  0.0000000000000E+00
368  3.6700000000000E+00  0.0000000000000E+00  0.0000000000000E+00
369  3.6800000000000E+00  0.0000000000000E+00  0.0000000000000E+00
370  3.6900000000000E+00  0.0000000000000E+00  0.0000000000000E+00
371  3.7000000000000E+00  0.0000000000000E+00  0.0000000000000E+00
372  3.7100000000000E+00  0.0000000000000E+00  0.0000000000000E+00
373  3.7200000000000E+00  0.0000000000000E+00  0.0000000000000E+00
374  3.7300000000000E+00  0.0000000000000E+00  0.0000000000000E+00
375  3.7400000000000E+00  0.0000000000000E+00  0.0000000000000E+00
376  3.7500000000000E+00  0.0000000000000E+00  0.0000000000000E+00
377  3.7600000000000E+00  0.0000000000000E+00  0.0000000000000E+00
378  3.7700000000000E+00  0.0000000000000E+00  0.0000000000000E+00
379  3.7800000000000E+00  0.0000000000000E+00  0.0000000000000E+00
380  3.7900000000000E+00  0.0000000000000E+00  0.0000000000000E+00
381  3.8000000000000E+00  0.0000000000000E+00  0.0000000000000E+00
382  3.8100000000000E+00  0.0000000000000E+00  0.0000000000000E+00
383  3.8200000000000E+00  0.0000000000000E+00  0.0000000000000E+00
384  3.8300000000000E+00  0.0000000000000E+00  0.0000000000000E+00
385  3.8400000000000E+00  0.0000000000000E+00  0.0000000000000E+00
386  3.8500000000000E+00  0.0000000000000E+00  0.0000000000000E+00
387  3.8600000000000E+00  0.0000000000000E+00  0.0000000000000E+00
388  3.8700000000000E+00  0.0000000000000E+00  0.0000000000000E+00
389  3.8800000000000E+00  0.0000000000000E+00  0.0000000000000E+00
390  3.8900000000000E+00  0.0000000000000E+00  0.0000000000000E+00
391  3.9000000000000E+00  0.0000000000000E+00  0.0000000000000E+00
392  3.9100000000000E+00  0.0000000000000E+00  0.0000000000000E+00
393  3.9200000000000E+00  0.0000000000000E+00  0.0000000000000E+00
394  3.9300000000000E+00  0.0000000000000E+00  0.0000000000000E+00
395  3.9400000000000E+00  0.0000000000000E+00  0.0000000000000E+00
396  3.9500000000000E+00  0.0000000000000E+00  0.0000000000000E+00
397  3.9600000000000E+00  0.0000000000000E+00  0.0000000000000E+00
398  3.9700000000000E+00  0.0000000000000E+00  0.0000000000000E+00
399  3.9800000000000E+00  0.0000000000000E+00  0.0000000000000E+00
400  3.9900000000000E+00  0.0000000000000E+00  0.0000000000000E+00
401  4.0000000000000E+00  0.0000000000000E+00  0.0000000000000E+00
402  4.0100000000000E+00  0.0000000000000E+00  0.0000000000000E+00
403  4.0200000000000E+00  0.0000000000000E+00  0.0000000000000E+00
404  4.0300000000000E+00  0.0000000000000E+00  0.0000000000000E+00
405  4.0400000000000E+00  0.0000000000000E+00  0.0000000000000E+00
406  4.0500000000000E+00  0.0000000000000E+00  0.0000000000000E+00
407  4.0600000000000E+00  0.0000000000000E+00  0.0000000000000E+00
408  4.0700000000000E+00  0.0000000000000E+00  0.0000000000000E+00
409  4.0800000000000E+00  0.0000000000000E+00  0.0000000000000E+00
410  4.0900000000000E+00  0.0000000000000E+00  0.0000000000000E+00
411  4.1000000000000E+00  0.0000000000000E+00  0.0000000000000E+00
412  4.1100000000000E+00  0.0000000000000E+00  0.0000000000000E+00
413  4.1200000000000E+00  0.0000000000000E+00  0.0000000000000E+00
414  4.1300000000000E+00  0.0000000000000E+00  0.0000000000000E+00
415  4.1400000000000E+00  0.0000000000000E+00  0.0000000000000E+00
416  4.1500000000000E+00  0.0000000000000E+00  0.0000000000000E+00
417  4.1600000000000E+00  0.0000000000000E+00  0.0000000000000E+00
418  4.1700000000000E+00  0.0000000000000E+00  0.0000000000000E+00
419  4.1800000000000E+00  0.0000000000000E+00  0.0000000000000E+00
420  4.1900000000000E+00  0.0000000000000E+00  0.0000000000000E+00
421  4.2000000000000E+00  0.0000000000000E+00  0.0000000000000E+00
422  4.2100000000000E+00  0.0000000000000E+00  0.0000000000000E+00
423  4.2200000000000E+00  0.0000000000000E+00  0.0000000000000E+00
424  4.2300000000000E+00  0.0000000000000E+00  0.0000000000000E+00
425  4.2400000000000E+00  0.0000000000000E+00  0.0000000000000E+00
426  4.2500000000000E+00  0.0000000000000E+00  0.0000000000000E+00
427  4.2600000000000E+00  0.0000000000000E+00  0.0000000000000E+00
428  4.2700000000000E+00  0.0000000000000E+00  0.0000000000000E+00
429  4.2800000000000E+00  0.0000000000000E+00  0.0000000000000E+00
430  4.2900000000000E+00  0.0000000000000E+00  0.0000000000000E+00
431  4.3000000000000E+00  0.0000000000000E+00  0.0000000000000E+00
432  4.3100000000000E+00  0.0000000000000E+00  0.0000000000000E+00
433  4.3200000000000E+00  0.0000000000000E+00  0.0000000000000E+00
434  4.3300000000000E+00  0.0000000000000E+00  0.0000000000000E+00
435  4.3400000000000E+00  0.0000000000000E+00  0.0000000000000E+00
436  4.3500000000000E+00  0.0000000000000E+00  0.0000000000000E+00
437  4.3600000000000E+00  0.0000000000000E+00  0.0000000000000E+00
438  4.3700000000000E+00  0.0000000000000E+00  0.0000000000000E+00
439  4.3800000000000E+00  0.0000000000000E+00  0.0000000000000E+00
440  4.3900000000000E+00  0.0000000000000E+00  0.0000000000000E+00
441  4.4000000000000E+00  0.0000000000000E+00  0.0000000000000E+00
442  4.4100000000000E+00  0.0000000000000E+00  0.0000000000000E+00
443  4.4200000000000E+00  0.0000000000000E+00  0.0000000000000E+00