Hg    ONCVPSP-3.2.3.1  r_core=   1.40394   1.45509   1.40394   1.60079
80.0000     20.0000      170503    zatom,zion,pspd
8      11   3     4   600     0    pspcod,pspxc,lmax,lloc,mmax,r2well
5.99000000  5.00000000  0.00000000    rchrg fchrg qchrg
2     2     2     1     0    nproj
1     1           extension_switch
0                         1.0181213563314E+01 -9.4594053505884E-01
1  0.0000000000000E+00  2.5017055094168E-10  4.4356819328684E-09
2  1.0000000000000E-02  6.9468061098664E-02 -7.0353633682622E-02
3  2.0000000000000E-02  1.3881145678559E-01 -1.4020598083848E-01
4  3.0000000000000E-02  2.0790558432424E-01 -2.0906096326722E-01
5  4.0000000000000E-02  2.7662596990741E-01 -2.7643284534395E-01
6  5.0000000000000E-02  3.4484834200424E-01 -3.4185122126636E-01
7  6.0000000000000E-02  4.1244871518520E-01 -4.0486578466342E-01
8  7.0000000000000E-02  4.7930348761904E-01 -4.6505081331721E-01
9  8.0000000000000E-02  5.4528955518554E-01 -5.2200930618496E-01
10  9.0000000000000E-02  6.1028444484236E-01 -5.7537671532406E-01
11  1.0000000000000E-01  6.7416646952741E-01 -6.2482422163351E-01
12  1.1000000000000E-01  7.3681490647652E-01 -6.7006151043561E-01
13  1.2000000000000E-01  7.9811020039428E-01 -7.1083901071966E-01
14  1.3000000000000E-01  8.5793419244172E-01 -7.4694957023580E-01
15  1.4000000000000E-01  9.1617037550425E-01 -7.7822954743066E-01
16  1.5000000000000E-01  9.7270417568550E-01 -8.0455931032197E-01
17  1.6000000000000E-01  1.0274232594440E+00 -8.2586314167164E-01
18  1.7000000000000E-01  1.0802178652594E+00 -8.4210855909425E-01
19  1.8000000000000E-01  1.1309811581914E+00 -8.5330506788191E-01
20  1.9000000000000E-01  1.1796096051822E+00 -8.5950237319373E-01
21  2.0000000000000E-01  1.2260033684690E+00 -8.6078808670797E-01
22  2.1000000000000E-01  1.2700667140114E+00 -8.5728497073118E-01
23  2.2000000000000E-01  1.3117084314199E+00 -8.4914776997589E-01
24  2.3000000000000E-01  1.3508422614946E+00 -8.3655968763737E-01
25  2.4000000000000E-01  1.3873873271555E+00 -8.1972856791705E-01
26  2.5000000000000E-01  1.4212685632767E+00 -7.9888285166155E-01
27  2.6000000000000E-01  1.4524171407246E+00 -7.7426737523656E-01
28  2.7000000000000E-01  1.4807708797556E+00 -7.4613908507135E-01
29  2.8000000000000E-01  1.5062746478507E+00 -7.1476274145032E-01
30  2.9000000000000E-01  1.5288807370524E+00 -6.8040668506654E-01
31  3.0000000000000E-01  1.5485492159357E+00 -6.4333873858265E-01
32  3.1000000000000E-01  1.5652482514723E+00 -6.0382231297745E-01
33  3.2000000000000E-01  1.5789543962512E+00 -5.6211278482595E-01
34  3.3000000000000E-01  1.5896528367878E+00 -5.1845420591349E-01
35  3.4000000000000E-01  1.5973375989855E+00 -4.7307640079032E-01
36  3.5000000000000E-01  1.6020117072099E+00 -4.2619250111789E-01
37  3.6000000000000E-01  1.6036872938836E+00 -3.7799695804007E-01
38  3.7000000000000E-01  1.6023856570085E+00 -3.2866406545186E-01
39  3.8000000000000E-01  1.5981372635682E+00 -2.7834701805959E-01
40  3.9000000000000E-01  1.5909816973360E+00 -2.2717751867513E-01
41  4.0000000000000E-01  1.5809675502283E+00 -1.7526593940596E-01
42  4.1000000000000E-01  1.5681522569618E+00 -1.2270203145530E-01
43  4.2000000000000E-01  1.5526018734187E+00 -6.9556168289294E-02
44  4.3000000000000E-01  1.5343907997590E+00 -1.5881097123849E-02
45  4.4000000000000E-01  1.5136014499565E+00  3.8285835800617E-02
46  4.5000000000000E-01  1.4903238700517E+00  9.2920029698876E-02
47  4.6000000000000E-01  1.4646553080116E+00  1.4800659539472E-01
48  4.7000000000000E-01  1.4366997386437E+00  2.0353700266983E-01
49  4.8000000000000E-01  1.4065673475383E+00  2.5950547501731E-01
50  4.9000000000000E-01  1.3743739784790E+00  3.1590520365979E-01
51  5.0000000000000E-01  1.3402405491831E+00  3.7272445720186E-01
52  5.1000000000000E-01  1.3042924405862E+00  4.2994266655570E-01
53  5.2000000000000E-01  1.2666588651749E+00  4.8752656674465E-01
54  5.3000000000000E-01  1.2274722200885E+00  5.4542647778793E-01
55  5.4000000000000E-01  1.1868674308538E+00  6.0357280607899E-01
56  5.5000000000000E-01  1.1449812916824E+00  6.6187284547304E-01
57  5.6000000000000E-01  1.1019518082502E+00  7.2020795370721E-01
58  5.7000000000000E-01  1.0579175487854E+00  7.7843117484115E-01
59  5.8000000000000E-01  1.0130170091287E+00  8.3636537214352E-01
60  5.9000000000000E-01  9.6738799718692E-01  8.9380192841036E-01
61  6.0000000000000E-01  9.2116704188791E-01  9.5050006208197E-01
62  6.1000000000000E-01  8.7448883136824E-01  1.0061867979754E+00
63  6.2000000000000E-01  8.2748568468473E-01  1.0605576209697E+00
64  6.3000000000000E-01  7.8028706084556E-01  1.1132778298346E+00
65  6.4000000000000E-01  7.3301910841705E-01  1.1639845967152E+00
66  6.5000000000000E-01  6.8580425837843E-01  1.2122897256828E+00
67  6.6000000000000E-01  6.3876086228755E-01  1.2577830915778E+00
68  6.7000000000000E-01  5.9200287718585E-01  1.3000367281508E+00
69  6.8000000000000E-01  5.4563959802529E-01  1.3386095225122E+00
70  6.9000000000000E-01  4.9977543775149E-01  1.3730524613467E+00
71  7.0000000000000E-01  4.5450975453912E-01  1.4029143634345E+00
72  7.1000000000000E-01  4.0993672504878E-01  1.4277480228305E+00
73  7.2000000000000E-01  3.6614526197968E-01  1.4471166779342E+00
74  7.3000000000000E-01  3.2321897363033E-01  1.4606007136735E+00
75  7.4000000000000E-01  2.8123616266180E-01  1.4678044973239E+00
76  7.5000000000000E-01  2.4026986079420E-01  1.4683632432427E+00
77  7.6000000000000E-01  2.0038789575844E-01  1.4619497980722E+00
78  7.7000000000000E-01  1.6165298648609E-01  1.4482812359232E+00
79  7.8000000000000E-01  1.2412286224917E-01  1.4271251526999E+00
80  7.9000000000000E-01  8.7850401265088E-02  1.3983055501258E+00
81  8.0000000000000E-01  5.2883784163878E-02  1.3617082032101E+00
82  8.1000000000000E-01  1.9266657674546E-02  1.3172854098113E+00
83  8.2000000000000E-01 -1.2961696072520E-02  1.2650600275972E+00
84  8.3000000000000E-01 -4.3766189112067E-02  1.2051287119757E+00
85  8.4000000000000E-01 -7.3115760369670E-02  1.1376642783967E+00
86  8.5000000000000E-01 -1.0098321556913E-01  1.0629171236741E+00
87  8.6000000000000E-01 -1.2734507800785E-01  9.8121565350206E-01
88  8.7000000000000E-01 -1.5218145348760E-01  8.9296567696751E-01
89  8.8000000000000E-01 -1.7547591223316E-01  7.9864874341355E-01
90  8.9000000000000E-01 -1.9721539012796E-01  6.9881941225867E-01
91  9.0000000000000E-01 -2.1739011105311E-01  5.9410146212123E-01
92  9.1000000000000E-01 -2.3599353154241E-01  4.8518306158864E-01
93  9.2000000000000E-01 -2.5302230837196E-01  3.7281093997276E-01
94  9.3000000000000E-01 -2.6847628909787E-01  2.5778361215542E-01
95  9.4000000000000E-01 -2.8235852495054E-01  1.4094372690634E-01
96  9.5000000000000E-01 -2.9467530489950E-01  2.3169622605000E-02
97  9.6000000000000E-01 -3.0543620912798E-01 -9.4633812118029E-02
98  9.7000000000000E-01 -3.1465417961357E-01 -2.1154486291186E-01
99  9.8000000000000E-01 -3.2234560500862E-01 -3.2663517851935E-01
100  9.9000000000000E-01 -3.2853041655475E-01 -4.3898029350766E-01
101  1.0000000000000E+00 -3.3323219138485E-01 -5.4767034716157E-01
102  1.0100000000000E+00 -3.3647825921381E-01 -6.5182085470283E-01
103  1.0200000000000E+00 -3.3829980817541E-01 -7.5058338359758E-01
104  1.0300000000000E+00 -3.3873198537304E-01 -8.4315598603119E-01
105  1.0400000000000E+00 -3.3781398760919E-01 -9.2879323920253E-01
106  1.0500000000000E+00 -3.3558913774677E-01 -1.0068157482252E+00
107  1.0600000000000E+00 -3.3210494220685E-01 -1.0766189708190E+00
108  1.0700000000000E+00 -3.2741312526672E-01 -1.1376812307094E+00
109  1.0800000000000E+00 -3.2156963605335E-01 -1.1895707957073E+00
110  1.0900000000000E+00 -3.1463462443107E-01 -1.2319519074405E+00
111  1.1000000000000E+00 -3.0667238241539E-01 -1.2645896641340E+00
112  1.1100000000000E+00 -2.9775124809990E-01 -1.2873536694010E+00
113  1.1200000000000E+00 -2.8794346972852E-01 -1.3002203800337E+00
114  1.1300000000000E+00 -2.7732502803511E-01 -1.3032741004868E+00
115  1.1400000000000E+00 -2.6597541568586E-01 -1.2967065928064E+00
116  1.1500000000000E+00 -2.5397737317279E-01 -1.2808152857045E+00
117  1.1600000000000E+00 -2.4141658135166E-01 -1.2560000906810E+00
118  1.1700000000000E+00 -2.2838131143576E-01 -1.2227588504265E+00
119  1.1800000000000E+00 -2.1496203407569E-01 -1.1816814675133E+00
120  1.1900000000000E+00 -2.0125098956976E-01 -1.1334427729294E+00
121  1.2000000000000E+00 -1.8734172232210E-01 -1.0787942233278E+00
122  1.2100000000000E+00 -1.7332858309471E-01 -1.0185545273180E+00
123  1.2200000000000E+00 -1.5930620317995E-01 -9.5359931681002E-01
124  1.2300000000000E+00 -1.4536894527261E-01 -8.8484999687056E-01
125  1.2400000000000E+00 -1.3161033637328E-01 -8.1326192202948E-01
126  1.2500000000000E+00 -1.1812248834432E-01 -7.3981205452338E-01
127  1.2600000000000E+00 -1.0499551213712E-01 -6.6548627041279E-01
128  1.2700000000000E+00 -9.2316932115619E-02 -5.9126648976643E-01
129  1.2800000000000E+00 -8.0171106857807E-02 -5.1811780576287E-01
130  1.2900000000000E+00 -6.8638663098779E-02 -4.4697579485539E-01
131  1.3000000000000E+00 -5.7795949398379E-02 -3.7873418731773E-01
132  1.3100000000000E+00 -4.7714515892228E-02 -3.1423307153021E-01
133  1.3200000000000E+00 -3.8460626664466E-02 -2.5424780981983E-01
134  1.3300000000000E+00 -3.0094810454353E-02 -1.9947882125569E-01
135  1.3400000000000E+00 -2.2671455406441E-02 -1.5054238687998E-01
136  1.3500000000000E+00 -1.6238453286365E-02 -1.0796262482757E-01
137  1.3600000000000E+00 -1.0839742764101E-02 -7.2183995951115E-02
138  1.3700000000000E+00 -6.5015198208387E-03 -4.3474324336837E-02
139  1.3800000000000E+00 -3.2352956693215E-03 -2.1935960133882E-02
140  1.3900000000000E+00 -1.1524107950928E-03 -8.3342031580508E-03
141  1.4000000000000E+00 -1.8629549327114E-04 -2.0834752598955E-03
142  1.4100000000000E+00  5.8235034302053E-05 -1.6478786352832E-04
143  1.4200000000000E+00  6.4436824024149E-06  1.0357079572148E-05
144  1.4300000000000E+00 -2.0470878438685E-05 -5.0969421492312E-05
145  1.4400000000000E+00  1.6099751291199E-06  1.5034276226681E-06
146  1.4500000000000E+00  2.8559142590444E-06  4.1074101192208E-06
147  1.4600000000000E+00  6.9770650128094E-08  2.3599344780498E-06
148  1.4700000000000E+00  3.5355526485642E-08  1.1958714128345E-06
149  1.4800000000000E+00  0.0000000000000E+00  0.0000000000000E+00
150  1.4900000000000E+00  0.0000000000000E+00  0.0000000000000E+00
151  1.5000000000000E+00  0.0000000000000E+00  0.0000000000000E+00
152  1.5100000000000E+00  0.0000000000000E+00  0.0000000000000E+00
153  1.5200000000000E+00  0.0000000000000E+00  0.0000000000000E+00
154  1.5300000000000E+00  0.0000000000000E+00  0.0000000000000E+00
155  1.5400000000000E+00  0.0000000000000E+00  0.0000000000000E+00
156  1.5500000000000E+00  0.0000000000000E+00  0.0000000000000E+00
157  1.5600000000000E+00  0.0000000000000E+00  0.0000000000000E+00
158  1.5700000000000E+00  0.0000000000000E+00  0.0000000000000E+00
159  1.5800000000000E+00  0.0000000000000E+00  0.0000000000000E+00
160  1.5900000000000E+00  0.0000000000000E+00  0.0000000000000E+00
161  1.6000000000000E+00  0.0000000000000E+00  0.0000000000000E+00
162  1.6100000000000E+00  0.0000000000000E+00  0.0000000000000E+00
163  1.6200000000000E+00  0.0000000000000E+00  0.0000000000000E+00
164  1.6300000000000E+00  0.0000000000000E+00  0.0000000000000E+00
165  1.6400000000000E+00  0.0000000000000E+00  0.0000000000000E+00
166  1.6500000000000E+00  0.0000000000000E+00  0.0000000000000E+00
167  1.6600000000000E+00  0.0000000000000E+00  0.0000000000000E+00
168  1.6700000000000E+00  0.0000000000000E+00  0.0000000000000E+00
169  1.6800000000000E+00  0.0000000000000E+00  0.0000000000000E+00
170  1.6900000000000E+00  0.0000000000000E+00  0.0000000000000E+00
171  1.7000000000000E+00  0.0000000000000E+00  0.0000000000000E+00
172  1.7100000000000E+00  0.0000000000000E+00  0.0000000000000E+00
173  1.7200000000000E+00  0.0000000000000E+00  0.0000000000000E+00
174  1.7300000000000E+00  0.0000000000000E+00  0.0000000000000E+00
175  1.7400000000000E+00  0.0000000000000E+00  0.0000000000000E+00
176  1.7500000000000E+00  0.0000000000000E+00  0.0000000000000E+00
177  1.7600000000000E+00  0.0000000000000E+00  0.0000000000000E+00
178  1.7700000000000E+00  0.0000000000000E+00  0.0000000000000E+00
179  1.7800000000000E+00  0.0000000000000E+00  0.0000000000000E+00
180  1.7900000000000E+00  0.0000000000000E+00  0.0000000000000E+00
181  1.8000000000000E+00  0.0000000000000E+00  0.0000000000000E+00
182  1.8100000000000E+00  0.0000000000000E+00  0.0000000000000E+00
183  1.8200000000000E+00  0.0000000000000E+00  0.0000000000000E+00
184  1.8300000000000E+00  0.0000000000000E+00  0.0000000000000E+00
185  1.8400000000000E+00  0.0000000000000E+00  0.0000000000000E+00
186  1.8500000000000E+00  0.0000000000000E+00  0.0000000000000E+00
187  1.8600000000000E+00  0.0000000000000E+00  0.0000000000000E+00
188  1.8700000000000E+00  0.0000000000000E+00  0.0000000000000E+00
189  1.8800000000000E+00  0.0000000000000E+00  0.0000000000000E+00
190  1.8900000000000E+00  0.0000000000000E+00  0.0000000000000E+00
191  1.9000000000000E+00  0.0000000000000E+00  0.0000000000000E+00
192  1.9100000000000E+00  0.0000000000000E+00  0.0000000000000E+00
193  1.9200000000000E+00  0.0000000000000E+00  0.0000000000000E+00
194  1.9300000000000E+00  0.0000000000000E+00  0.0000000000000E+00
195  1.9400000000000E+00  0.0000000000000E+00  0.0000000000000E+00
196  1.9500000000000E+00  0.0000000000000E+00  0.0000000000000E+00
197  1.9600000000000E+00  0.0000000000000E+00  0.0000000000000E+00
198  1.9700000000000E+00  0.0000000000000E+00  0.0000000000000E+00
199  1.9800000000000E+00  0.0000000000000E+00  0.0000000000000E+00
200  1.9900000000000E+00  0.0000000000000E+00  0.0000000000000E+00
201  2.0000000000000E+00  0.0000000000000E+00  0.0000000000000E+00
202  2.0100000000000E+00  0.0000000000000E+00  0.0000000000000E+00
203  2.0200000000000E+00  0.0000000000000E+00  0.0000000000000E+00
204  2.0300000000000E+00  0.0000000000000E+00  0.0000000000000E+00
205  2.0400000000000E+00  0.0000000000000E+00  0.0000000000000E+00
206  2.0500000000000E+00  0.0000000000000E+00  0.0000000000000E+00
207  2.0600000000000E+00  0.0000000000000E+00  0.0000000000000E+00
208  2.0700000000000E+00  0.0000000000000E+00  0.0000000000000E+00
209  2.0800000000000E+00  0.0000000000000E+00  0.0000000000000E+00
210  2.0900000000000E+00  0.0000000000000E+00  0.0000000000000E+00
211  2.1000000000000E+00  0.0000000000000E+00  0.0000000000000E+00
212  2.1100000000000E+00  0.0000000000000E+00  0.0000000000000E+00
213  2.1200000000000E+00  0.0000000000000E+00  0.0000000000000E+00
214  2.1300000000000E+00  0.0000000000000E+00  0.0000000000000E+00
215  2.1400000000000E+00  0.0000000000000E+00  0.0000000000000E+00
216  2.1500000000000E+00  0.0000000000000E+00  0.0000000000000E+00
217  2.1600000000000E+00  0.0000000000000E+00  0.0000000000000E+00
218  2.1700000000000E+00  0.0000000000000E+00  0.0000000000000E+00
219  2.1800000000000E+00  0.0000000000000E+00  0.0000000000000E+00
220  2.1900000000000E+00  0.0000000000000E+00  0.0000000000000E+00
221  2.2000000000000E+00  0.0000000000000E+00  0.0000000000000E+00
222  2.2100000000000E+00  0.0000000000000E+00  0.0000000000000E+00
223  2.2200000000000E+00  0.0000000000000E+00  0.0000000000000E+00
224  2.2300000000000E+00  0.0000000000000E+00  0.0000000000000E+00
225  2.2400000000000E+00  0.0000000000000E+00  0.0000000000000E+00
226  2.2500000000000E+00  0.0000000000000E+00  0.0000000000000E+00
227  2.2600000000000E+00  0.0000000000000E+00  0.0000000000000E+00
228  2.2700000000000E+00  0.0000000000000E+00  0.0000000000000E+00
229  2.2800000000000E+00  0.0000000000000E+00  0.0000000000000E+00
230  2.2900000000000E+00  0.0000000000000E+00  0.0000000000000E+00
231  2.3000000000000E+00  0.0000000000000E+00  0.0000000000000E+00
232  2.3100000000000E+00  0.0000000000000E+00  0.0000000000000E+00
233  2.3200000000000E+00  0.0000000000000E+00  0.0000000000000E+00
234  2.3300000000000E+00  0.0000000000000E+00  0.0000000000000E+00
235  2.3400000000000E+00  0.0000000000000E+00  0.0000000000000E+00
236  2.3500000000000E+00  0.0000000000000E+00  0.0000000000000E+00
237  2.3600000000000E+00  0.0000000000000E+00  0.0000000000000E+00
238  2.3700000000000E+00  0.0000000000000E+00  0.0000000000000E+00
239  2.3800000000000E+00  0.0000000000000E+00  0.0000000000000E+00
240  2.3900000000000E+00  0.0000000000000E+00  0.0000000000000E+00
241  2.4000000000000E+00  0.0000000000000E+00  0.0000000000000E+00
242  2.4100000000000E+00  0.0000000000000E+00  0.0000000000000E+00
243  2.4200000000000E+00  0.0000000000000E+00  0.0000000000000E+00
244  2.4300000000000E+00  0.0000000000000E+00  0.0000000000000E+00
245  2.4400000000000E+00  0.0000000000000E+00  0.0000000000000E+00
246  2.4500000000000E+00  0.0000000000000E+00  0.0000000000000E+00
247  2.4600000000000E+00  0.0000000000000E+00  0.0000000000000E+00
248  2.4700000000000E+00  0.0000000000000E+00  0.0000000000000E+00
249  2.4800000000000E+00  0.0000000000000E+00  0.0000000000000E+00
250  2.4900000000000E+00  0.0000000000000E+00  0.0000000000000E+00
251  2.5000000000000E+00  0.0000000000000E+00  0.0000000000000E+00
252  2.5100000000000E+00  0.0000000000000E+00  0.0000000000000E+00
253  2.5200000000000E+00  0.0000000000000E+00  0.0000000000000E+00
254  2.5300000000000E+00  0.0000000000000E+00  0.0000000000000E+00
255  2.5400000000000E+00  0.0000000000000E+00  0.0000000000000E+00
256  2.5500000000000E+00  0.0000000000000E+00  0.0000000000000E+00
257  2.5600000000000E+00  0.0000000000000E+00  0.0000000000000E+00
258  2.5700000000000E+00  0.0000000000000E+00  0.0000000000000E+00
259  2.5800000000000E+00  0.0000000000000E+00  0.0000000000000E+00
260  2.5900000000000E+00  0.0000000000000E+00  0.0000000000000E+00
261  2.6000000000000E+00  0.0000000000000E+00  0.0000000000000E+00
262  2.6100000000000E+00  0.0000000000000E+00  0.0000000000000E+00
263  2.6200000000000E+00  0.0000000000000E+00  0.0000000000000E+00
264  2.6300000000000E+00  0.0000000000000E+00  0.0000000000000E+00
265  2.6400000000000E+00  0.0000000000000E+00  0.0000000000000E+00
266  2.6500000000000E+00  0.0000000000000E+00  0.0000000000000E+00
267  2.6600000000000E+00  0.0000000000000E+00  0.0000000000000E+00
268  2.6700000000000E+00  0.0000000000000E+00  0.0000000000000E+00
269  2.6800000000000E+00  0.0000000000000E+00  0.0000000000000E+00
270  2.6900000000000E+00  0.0000000000000E+00  0.0000000000000E+00
271  2.7000000000000E+00  0.0000000000000E+00  0.0000000000000E+00
272  2.7100000000000E+00  0.0000000000000E+00  0.0000000000000E+00
273  2.7200000000000E+00  0.0000000000000E+00  0.0000000000000E+00
274  2.7300000000000E+00  0.0000000000000E+00  0.0000000000000E+00
275  2.7400000000000E+00  0.0000000000000E+00  0.0000000000000E+00
276  2.7500000000000E+00  0.0000000000000E+00  0.0000000000000E+00
277  2.7600000000000E+00  0.0000000000000E+00  0.0000000000000E+00
278  2.7700000000000E+00  0.0000000000000E+00  0.0000000000000E+00
279  2.7800000000000E+00  0.0000000000000E+00  0.0000000000000E+00
280  2.7900000000000E+00  0.0000000000000E+00  0.0000000000000E+00
281  2.8000000000000E+00  0.0000000000000E+00  0.0000000000000E+00
282  2.8100000000000E+00  0.0000000000000E+00  0.0000000000000E+00
283  2.8200000000000E+00  0.0000000000000E+00  0.0000000000000E+00
284  2.8300000000000E+00  0.0000000000000E+00  0.0000000000000E+00
285  2.8400000000000E+00  0.0000000000000E+00  0.0000000000000E+00
286  2.8500000000000E+00  0.0000000000000E+00  0.0000000000000E+00
287  2.8600000000000E+00  0.0000000000000E+00  0.0000000000000E+00
288  2.8700000000000E+00  0.0000000000000E+00  0.0000000000000E+00
289  2.8800000000000E+00  0.0000000000000E+00  0.0000000000000E+00
290  2.8900000000000E+00  0.0000000000000E+00  0.0000000000000E+00
291  2.9000000000000E+00  0.0000000000000E+00  0.0000000000000E+00
292  2.9100000000000E+00  0.0000000000000E+00  0.0000000000000E+00
293  2.9200000000000E+00  0.0000000000000E+00  0.0000000000000E+00
294  2.9300000000000E+00  0.0000000000000E+00  0.0000000000000E+00
295  2.9400000000000E+00  0.0000000000000E+00  0.0000000000000E+00
296  2.9500000000000E+00  0.0000000000000E+00  0.0000000000000E+00
297  2.9600000000000E+00  0.0000000000000E+00  0.0000000000000E+00
298  2.9700000000000E+00  0.0000000000000E+00  0.0000000000000E+00
299  2.9800000000000E+00  0.0000000000000E+00  0.0000000000000E+00
300  2.9900000000000E+00  0.0000000000000E+00  0.0000000000000E+00
301  3.0000000000000E+00  0.0000000000000E+00  0.0000000000000E+00
302  3.0100000000000E+00  0.0000000000000E+00  0.0000000000000E+00
303  3.0200000000000E+00  0.0000000000000E+00  0.0000000000000E+00
304  3.0300000000000E+00  0.0000000000000E+00  0.0000000000000E+00
305  3.0400000000000E+00  0.0000000000000E+00  0.0000000000000E+00
306  3.0500000000000E+00  0.0000000000000E+00  0.0000000000000E+00
307  3.0600000000000E+00  0.0000000000000E+00  0.0000000000000E+00
308  3.0700000000000E+00  0.0000000000000E+00  0.0000000000000E+00
309  3.0800000000000E+00  0.0000000000000E+00  0.0000000000000E+00
310  3.0900000000000E+00  0.0000000000000E+00  0.0000000000000E+00
311  3.1000000000000E+00  0.0000000000000E+00  0.0000000000000E+00
312  3.1100000000000E+00  0.0000000000000E+00  0.0000000000000E+00
313  3.1200000000000E+00  0.0000000000000E+00  0.0000000000000E+00
314  3.1300000000000E+00  0.0000000000000E+00  0.0000000000000E+00
315  3.1400000000000E+00  0.0000000000000E+00  0.0000000000000E+00
316  3.1500000000000E+00  0.0000000000000E+00  0.0000000000000E+00
317  3.1600000000000E+00  0.0000000000000E+00  0.0000000000000E+00
318  3.1700000000000E+00  0.0000000000000E+00  0.0000000000000E+00
319  3.1800000000000E+00  0.0000000000000E+00  0.0000000000000E+00
320  3.1900000000000E+00  0.0000000000000E+00  0.0000000000000E+00
321  3.2000000000000E+00  0.0000000000000E+00  0.0000000000000E+00
322  3.2100000000000E+00  0.0000000000000E+00  0.0000000000000E+00
323  3.2200000000000E+00  0.0000000000000E+00  0.0000000000000E+00
324  3.2300000000000E+00  0.0000000000000E+00  0.0000000000000E+00
325  3.2400000000000E+00  0.0000000000000E+00  0.0000000000000E+00
326  3.2500000000000E+00  0.0000000000000E+00  0.0000000000000E+00
327  3.2600000000000E+00  0.0000000000000E+00  0.0000000000000E+00
328  3.2700000000000E+00  0.0000000000000E+00  0.0000000000000E+00
329  3.2800000000000E+00  0.0000000000000E+00  0.0000000000000E+00
330  3.2900000000000E+00  0.0000000000000E+00  0.0000000000000E+00
331  3.3000000000000E+00  0.0000000000000E+00  0.0000000000000E+00
332  3.3100000000000E+00  0.0000000000000E+00  0.0000000000000E+00
333  3.3200000000000E+00  0.0000000000000E+00  0.0000000000000E+00
334  3.3300000000000E+00  0.0000000000000E+00  0.0000000000000E+00
335  3.3400000000000E+00  0.0000000000000E+00  0.0000000000000E+00
336  3.3500000000000E+00  0.0000000000000E+00  0.0000000000000E+00
337  3.3600000000000E+00  0.0000000000000E+00  0.0000000000000E+00
338  3.3700000000000E+00  0.0000000000000E+00  0.0000000000000E+00
339  3.3800000000000E+00  0.0000000000000E+00  0.0000000000000E+00
340  3.3900000000000E+00  0.0000000000000E+00  0.0000000000000E+00
341  3.4000000000000E+00  0.0000000000000E+00  0.0000000000000E+00
342  3.4100000000000E+00  0.0000000000000E+00  0.0000000000000E+00
343  3.4200000000000E+00  0.0000000000000E+00  0.0000000000000E+00
344  3.4300000000000E+00  0.0000000000000E+00  0.0000000000000E+00
345  3.4400000000000E+00  0.0000000000000E+00  0.0000000000000E+00
346  3.4500000000000E+00  0.0000000000000E+00  0.0000000000000E+00
347  3.4600000000000E+00  0.0000000000000E+00  0.0000000000000E+00
348  3.4700000000000E+00  0.0000000000000E+00  0.0000000000000E+00
349  3.4800000000000E+00  0.0000000000000E+00  0.0000000000000E+00
350  3.4900000000000E+00  0.0000000000000E+00  0.0000000000000E+00
351  3.5000000000000E+00  0.0000000000000E+00  0.0000000000000E+00
352  3.5100000000000E+00  0.0000000000000E+00  0.0000000000000E+00
353  3.5200000000000E+00  0.0000000000000E+00  0.0000000000000E+00
354  3.5300000000000E+00  0.0000000000000E+00  0.0000000000000E+00
355  3.5400000000000E+00  0.0000000000000E+00  0.0000000000000E+00
356  3.5500000000000E+00  0.0000000000000E+00  0.0000000000000E+00
357  3.5600000000000E+00  0.0000000000000E+00  0.0000000000000E+00
358  3.5700000000000E+00  0.0000000000000E+00  0.0000000000000E+00
359  3.5800000000000E+00  0.0000000000000E+00  0.0000000000000E+00
360  3.5900000000000E+00  0.0000000000000E+00  0.0000000000000E+00
361  3.6000000000000E+00  0.0000000000000E+00  0.0000000000000E+00
362  3.6100000000000E+00  0.0000000000000E+00  0.0000000000000E+00
363  3.6200000000000E+00  0.0000000000000E+00  0.0000000000000E+00
364  3.6300000000000E+00  0.0000000000000E+00  0.0000000000000E+00
365  3.6400000000000E+00  0.0000000000000E+00  0.0000000000000E+00
366  3.6500000000000E+00  0.0000000000000E+00  0.0000000000000E+00
367  3.6600000000000E+00  0.0000000000000E+00  0.0000000000000E+00
368  3.6700000000000E+00  0.0000000000000E+00  0.0000000000000E+00
369  3.6800000000000E+00  0.0000000000000E+00  0.0000000000000E+00
370  3.6900000000000E+00  0.0000000000000E+00  0.0000000000000E+00
371  3.7000000000000E+00  0.0000000000000E+00  0.0000000000000E+00
372  3.7100000000000E+00  0.0000000000000E+00  0.0000000000000E+00
373  3.7200000000000E+00  0.0000000000000E+00  0.0000000000000E+00
374  3.7300000000000E+00  0.0000000000000E+00  0.0000000000000E+00
375  3.7400000000000E+00  0.0000000000000E+00  0.0000000000000E+00
376  3.7500000000000E+00  0.0000000000000E+00  0.0000000000000E+00
377  3.7600000000000E+00  0.0000000000000E+00  0.0000000000000E+00
378  3.7700000000000E+00  0.0000000000000E+00  0.0000000000000E+00
379  3.7800000000000E+00  0.0000000000000E+00  0.0000000000000E+00
380  3.7900000000000E+00  0.0000000000000E+00  0.0000000000000E+00
381  3.8000000000000E+00  0.0000000000000E+00  0.0000000000000E+00
382  3.8100000000000E+00  0.0000000000000E+00  0.0000000000000E+00
383  3.8200000000000E+00  0.0000000000000E+00  0.0000000000000E+00
384  3.8300000000000E+00  0.0000000000000E+00  0.0000000000000E+00
385  3.8400000000000E+00  0.0000000000000E+00  0.0000000000000E+00
386  3.8500000000000E+00  0.0000000000000E+00  0.0000000000000E+00
387  3.8600000000000E+00  0.0000000000000E+00  0.0000000000000E+00
388  3.8700000000000E+00  0.0000000000000E+00  0.0000000000000E+00
389  3.8800000000000E+00  0.0000000000000E+00  0.0000000000000E+00
390  3.8900000000000E+00  0.0000000000000E+00  0.0000000000000E+00
391  3.9000000000000E+00  0.0000000000000E+00  0.0000000000000E+00
392  3.9100000000000E+00  0.0000000000000E+00  0.0000000000000E+00
393  3.9200000000000E+00  0.0000000000000E+00  0.0000000000000E+00
394  3.9300000000000E+00  0.0000000000000E+00  0.0000000000000E+00
395  3.9400000000000E+00  0.0000000000000E+00  0.0000000000000E+00
396  3.9500000000000E+00  0.0000000000000E+00  0.0000000000000E+00
397  3.9600000000000E+00  0.0000000000000E+00  0.0000000000000E+00
398  3.9700000000000E+00  0.0000000000000E+00  0.0000000000000E+00
399  3.9800000000000E+00  0.0000000000000E+00  0.0000000000000E+00
400  3.9900000000000E+00  0.0000000000000E+00  0.0000000000000E+00
401  4.0000000000000E+00  0.0000000000000E+00  0.0000000000000E+00
402  4.0100000000000E+00  0.0000000000000E+00  0.0000000000000E+00
403  4.0200000000000E+00  0.0000000000000E+00  0.0000000000000E+00
404  4.0300000000000E+00  0.0000000000000E+00  0.0000000000000E+00
405  4.0400000000000E+00  0.0000000000000E+00  0.0000000000000E+00
406  4.0500000000000E+00  0.0000000000000E+00  0.0000000000000E+00
407  4.0600000000000E+00  0.0000000000000E+00  0.0000000000000E+00
408  4.0700000000000E+00  0.0000000000000E+00  0.0000000000000E+00
409  4.0800000000000E+00  0.0000000000000E+00  0.0000000000000E+00
410  4.0900000000000E+00  0.0000000000000E+00  0.0000000000000E+00
411  4.1000000000000E+00  0.0000000000000E+00  0.0000000000000E+00
412  4.1100000000000E+00  0.0000000000000E+00  0.0000000000000E+00
413  4.1200000000000E+00  0.0000000000000E+00  0.0000000000000E+00
414  4.1300000000000E+00  0.0000000000000E+00  0.0000000000000E+00
415  4.1400000000000E+00  0.0000000000000E+00  0.0000000000000E+00
416  4.1500000000000E+00  0.0000000000000E+00  0.0000000000000E+00
417  4.1600000000000E+00  0.0000000000000E+00  0.0000000000000E+00
418  4.1700000000000E+00  0.0000000000000E+00  0.0000000000000E+00
419  4.1800000000000E+00  0.0000000000000E+00  0.0000000000000E+00
420  4.1900000000000E+00  0.0000000000000E+00  0.0000000000000E+00
421  4.2000000000000E+00  0.0000000000000E+00  0.0000000000000E+00
422  4.2100000000000E+00  0.0000000000000E+00  0.0000000000000E+00
423  4.2200000000000E+00  0.0000000000000E+00  0.0000000000000E+00
424  4.2300000000000E+00  0.0000000000000E+00  0.0000000000000E+00
425  4.2400000000000E+00  0.0000000000000E+00  0.0000000000000E+00
426  4.2500000000000E+00  0.0000000000000E+00  0.0000000000000E+00
427  4.2600000000000E+00  0.0000000000000E+00  0.0000000000000E+00
428  4.2700000000000E+00  0.0000000000000E+00  0.0000000000000E+00
429  4.2800000000000E+00  0.0000000000000E+00  0.0000000000000E+00
430  4.2900000000000E+00  0.0000000000000E+00  0.0000000000000E+00
431  4.3000000000000E+00  0.0000000000000E+00  0.0000000000000E+00
432  4.3100000000000E+00  0.0000000000000E+00  0.0000000000000E+00
433  4.3200000000000E+00  0.0000000000000E+00  0.0000000000000E+00
434  4.3300000000000E+00  0.0000000000000E+00  0.0000000000000E+00
435  4.3400000000000E+00  0.0000000000000E+00  0.0000000000000E+00
436  4.3500000000000E+00  0.0000000000000E+00  0.0000000000000E+00
437  4.3600000000000E+00  0.0000000000000E+00  0.0000000000000E+00
438  4.3700000000000E+00  0.0000000000000E+00  0.0000000000000E+00
439  4.3800000000000E+00  0.0000000000000E+00  0.0000000000000E+00
440  4.3900000000000E+00  0.0000000000000E+00  0.0000000000000E+00
441  4.4000000000000E+00  0.0000000000000E+00  0.0000000000000E+00
442  4.4100000000000E+00  0.0000000000000E+00  0.0000000000000E+00
443  4.4200000000000E+00  0.0000000000000E+00  0.0000000000000E+00