He    ONCVPSP-4.0.1  r_core=   1.25127   1.13028
      2.0000      2.0000      230118    zatom,zion,pspd
     8       2   1     4   600     0    pspcod,pspxc,lmax,lloc,mmax,r2well
  5.99000000  0.00000000  0.00000000    rchrg fchrg qchrg
     2     1     0     0     0    nproj
     1     1           extension_switch
   0                        -3.4832375613645E+00 -8.1032190526077E-01
     1  0.0000000000000E+00 -1.2768349488823E-08  2.7964388221724E-08
     2  1.0000000000000E-02  9.5784598499091E-02 -2.9976547715285E-02
     3  2.0000000000000E-02  1.9126000000704E-01 -5.9759398497467E-02
     4  3.0000000000000E-02  2.8611941560703E-01 -8.9156848471647E-02
     5  4.0000000000000E-02  3.8006079364212E-01 -1.1798104441012E-01
     6  5.0000000000000E-02  4.7278899468847E-01 -1.4604957829424E-01
     7  6.0000000000000E-02  5.6401774397005E-01 -1.7318670673616E-01
     8  7.0000000000000E-02  6.5347130295868E-01 -1.9922410538637E-01
     9  8.0000000000000E-02  7.4088581467156E-01 -2.2400109641721E-01
    10  9.0000000000000E-02  8.2601029207366E-01 -2.4736431950884E-01
    11  1.0000000000000E-01  9.0860723536888E-01 -2.6916685189415E-01
    12  1.1000000000000E-01  9.8845288110769E-01 -2.8926681920846E-01
    13  1.2000000000000E-01  1.0653371031969E+00 -3.0752557432132E-01
    14  1.3000000000000E-01  1.1390630023087E+00 -3.2380555418483E-01
    15  1.4000000000000E-01  1.2094462351120E+00 -3.3796795327787E-01
    16  1.5000000000000E-01  1.2763141475115E+00 -3.4987037487846E-01
    17  1.6000000000000E-01  1.3395047860673E+00 -3.5936463680921E-01
    18  1.7000000000000E-01  1.3988658685058E+00 -3.6629491541983E-01
    19  1.8000000000000E-01  1.4542537973429E+00 -3.7049640968859E-01
    20  1.9000000000000E-01  1.5055327999217E+00 -3.7179469612312E-01
    21  2.0000000000000E-01  1.5525742735569E+00 -3.7000592470881E-01
    22  2.1000000000000E-01  1.5952564060892E+00 -3.6493797699526E-01
    23  2.2000000000000E-01  1.6334641302417E+00 -3.5639267044063E-01
    24  2.3000000000000E-01  1.6670894551749E+00 -3.4416904963795E-01
    25  2.4000000000000E-01  1.6960322010971E+00 -3.2806775664869E-01
    26  2.5000000000000E-01  1.7202011433918E+00 -3.0789642126688E-01
    27  2.6000000000000E-01  1.7395155522387E+00 -2.8347595973051E-01
    28  2.7000000000000E-01  1.7539070929642E+00 -2.5464761941133E-01
    29  2.8000000000000E-01  1.7633220322264E+00 -2.2128055960714E-01
    30  2.9000000000000E-01  1.7677236764791E+00 -1.8327971693047E-01
    31  3.0000000000000E-01  1.7670949528029E+00 -1.4059366998599E-01
    32  3.1000000000000E-01  1.7614410288873E+00 -9.3222193867006E-02
    33  3.2000000000000E-01  1.7507918593528E+00 -4.1223181970402E-02
    34  3.3000000000000E-01  1.7352045402463E+00  1.5281388165536E-02
    35  3.4000000000000E-01  1.7147653527890E+00  7.6100756201470E-02
    36  3.5000000000000E-01  1.6895913815114E+00  1.4097223356490E-01
    37  3.6000000000000E-01  1.6598316007817E+00  2.0955985942684E-01
    38  3.7000000000000E-01  1.6256673372651E+00  2.8145505654660E-01
    39  3.8000000000000E-01  1.5873120336615E+00  3.5617942522133E-01
    40  3.9000000000000E-01  1.5450102606435E+00  4.3318974467597E-01
    41  4.0000000000000E-01  1.4990359485475E+00  5.1188517587559E-01
    42  4.1000000000000E-01  1.4496898372198E+00  5.9161658050303E-01
    43  4.2000000000000E-01  1.3972961705543E+00  6.7169779052994E-01
    44  4.3000000000000E-01  1.3421986906441E+00  7.5141858438744E-01
    45  4.4000000000000E-01  1.2847560140495E+00  8.3005905221900E-01
    46  4.5000000000000E-01  1.2253364983966E+00  9.0690496701413E-01
    47  4.6000000000000E-01  1.1643127303377E+00  9.8126372333757E-01
    48  4.7000000000000E-01  1.1020557848753E+00  1.0524803633534E+00
    49  4.8000000000000E-01  1.0389294203562E+00  1.1199531829791E+00
    50  4.9000000000000E-01  9.7528438237875E-01  1.1831484008894E+00
    51  5.0000000000000E-01  9.1145299293834E-01  1.2416133807727E+00
    52  5.1000000000000E-01  8.4774419804596E-01  1.2949879231558E+00
    53  5.2000000000000E-01  7.8443923770716E-01  1.3430131870549E+00
    54  5.3000000000000E-01  7.2178808668613E-01  1.3855378628072E+00
    55  5.4000000000000E-01  6.6000679325938E-01  1.4225212941863E+00
    56  5.5000000000000E-01  5.9927581677159E-01  1.4540333381757E+00
    57  5.6000000000000E-01  5.3973943402547E-01  1.4802508518967E+00
    58  5.7000000000000E-01  4.8150625033227E-01  1.5014508050079E+00
    59  5.8000000000000E-01  4.2465081453168E-01  1.5180001288914E+00
    60  5.9000000000000E-01  3.6921629968384E-01  1.5303425273249E+00
    61  6.0000000000000E-01  3.1521817373738E-01  1.5389825831955E+00
    62  6.1000000000000E-01  2.6264874860836E-01  1.5444675982169E+00
    63  6.2000000000000E-01  2.1148246306636E-01  1.5473676937878E+00
    64  6.3000000000000E-01  1.6168172585164E-01  1.5482547775673E+00
    65  6.4000000000000E-01  1.1320312166466E-01  1.5476810389519E+00
    66  6.5000000000000E-01  6.6003765043772E-02  1.5461576748316E+00
    67  6.6000000000000E-01  2.0047576457297E-02  1.5441345628421E+00
    68  6.7000000000000E-01 -2.4688748265041E-02  1.5419815915787E+00
    69  6.8000000000000E-01 -6.8210299441832E-02  1.5399723254339E+00
    70  6.9000000000000E-01 -1.1049925784075E-01  1.5382706262171E+00
    71  7.0000000000000E-01 -1.5151113357791E-01  1.5369207756747E+00
    72  7.1000000000000E-01 -1.9117210427236E-01  1.5358415444217E+00
    73  7.2000000000000E-01 -2.2937758359746E-01  1.5348245363298E+00
    74  7.3000000000000E-01 -2.6599211249275E-01  1.5335370064993E+00
    75  7.4000000000000E-01 -3.0085062224460E-01  1.5315292095206E+00
    76  7.5000000000000E-01 -3.3376107278361E-01  1.5282461872436E+00
    77  7.6000000000000E-01 -3.6450842237339E-01  1.5230437564629E+00
    78  7.7000000000000E-01 -3.9285983794229E-01  1.5152083116739E+00
    79  7.8000000000000E-01 -4.1857101023698E-01  1.5039799212883E+00
    80  7.9000000000000E-01 -4.4139339631543E-01  1.4885780721355E+00
    81  8.0000000000000E-01 -4.6108217512776E-01  1.4682293111377E+00
    82  8.1000000000000E-01 -4.7740467140580E-01  1.4421959486640E+00
    83  8.2000000000000E-01 -4.9014897995287E-01  1.4098049285288E+00
    84  8.3000000000000E-01 -4.9913250763806E-01  1.3704759374853E+00
    85  8.4000000000000E-01 -5.0421014462190E-01  1.3237478240633E+00
    86  8.5000000000000E-01 -5.0528177996290E-01  1.2693024235137E+00
    87  8.6000000000000E-01 -5.0229888985245E-01  1.2069849422651E+00
    88  8.7000000000000E-01 -4.9526994906418E-01  1.1368201405258E+00
    89  8.8000000000000E-01 -4.8426444723326E-01  1.0590236633508E+00
    90  8.9000000000000E-01 -4.6941533045425E-01  9.7400800563554E-01
    91  9.0000000000000E-01 -4.5091973428025E-01  8.8238275123653E-01
    92  9.1000000000000E-01 -4.2903792515851E-01  7.8494889622150E-01
    93  9.2000000000000E-01 -4.0409042207916E-01  6.8268724596475E-01
    94  9.3000000000000E-01 -3.7645332703622E-01  5.7674105991470E-01
    95  9.4000000000000E-01 -3.4655194998841E-01  4.6839330056659E-01
    96  9.5000000000000E-01 -3.1485286951134E-01  3.5903901863536E-01
    97  9.6000000000000E-01 -2.8185462243363E-01  2.5015356894675E-01
    98  9.7000000000000E-01 -2.4807726270152E-01  1.4325749575162E-01
    99  9.8000000000000E-01 -2.1405106992070E-01  3.9879047125919E-02
   100  9.9000000000000E-01 -1.8030472009588E-01 -5.8484628321531E-02
   101  1.0000000000000E+00 -1.4735325384614E-01 -1.5040648654652E-01
   102  1.0100000000000E+00 -1.1568618997252E-01 -2.3456764970996E-01
   103  1.0200000000000E+00 -8.5756134145881E-02 -3.0979338447102E-01
   104  1.0300000000000E+00 -5.7968223432724E-02 -3.7508589760351E-01
   105  1.0400000000000E+00 -3.2670727562082E-02 -4.2965292449204E-01
   106  1.0500000000000E+00 -1.0147097741740E-02 -4.7293119346743E-01
   107  1.0600000000000E+00  9.3902857768489E-03 -5.0460398616386E-01
   108  1.0700000000000E+00  2.5804464001801E-02 -5.2461217671102E-01
   109  1.0800000000000E+00  3.9036198830472E-02 -5.3315831669233E-01
   110  1.0900000000000E+00  4.9104133441599E-02 -5.3070353218306E-01
   111  1.1000000000000E+00  5.6102788266387E-02 -5.1795720821157E-01
   112  1.1100000000000E+00  6.0198432276195E-02 -4.9585964863814E-01
   113  1.1200000000000E+00  6.1622933212429E-02 -4.6555810731298E-01
   114  1.1300000000000E+00  6.0665753871460E-02 -4.2837679297173E-01
   115  1.1400000000000E+00  5.7664369506061E-02 -3.8578183484655E-01
   116  1.1500000000000E+00  5.2993981328723E-02 -3.3934449254562E-01
   117  1.1600000000000E+00  4.7056325968885E-02 -2.9070155824137E-01
   118  1.1700000000000E+00  4.0267190608644E-02 -2.4151127114681E-01
   119  1.1800000000000E+00  3.3043545635795E-02 -1.9340817898498E-01
   120  1.1900000000000E+00  2.5790790523169E-02 -1.4795856010598E-01
   121  1.2000000000000E+00  1.8892319489268E-02 -1.0662098453403E-01
   122  1.2100000000000E+00  1.2694195854163E-02 -7.0700058101629E-02
   123  1.2200000000000E+00  7.4948523637344E-03 -4.1310315280685E-02
   124  1.2300000000000E+00  3.5384113511095E-03 -1.9350665045224E-02
   125  1.2400000000000E+00  9.9963120310994E-04 -5.4370549339321E-03
   126  1.2500000000000E+00  2.8500417938386E-05 -1.5443709581755E-04
   127  1.2600000000000E+00  3.8897493140095E-06 -2.1079849535376E-05
   128  1.2700000000000E+00 -1.1649341217468E-06  6.3263209775317E-06
   129  1.28  0. -0.
   130  1.29  0.  0.
   131  1.30  0.  0.
   132  1.31  0.  0.
   133  1.32  0.  0.
   134  1.33  0.  0.
   135  1.34  0.  0.
   136  1.35  0.  0.
   137  1.36  0.  0.
   138  1.37  0.  0.
   139  1.38  0.  0.
   140  1.39  0.  0.
   141  1.40  0.  0.
   142  1.41  0.  0.
   143  1.42  0.  0.
   144  1.43  0.  0.
   145  1.44  0.  0.
   146  1.45  0.  0.
   147  1.46  0.  0.
   148  1.47  0.  0.
   149  1.48  0.  0.
   150  1.49  0.  0.
   151  1.50  0.  0.
   152  1.51  0.  0.
   153  1.52  0.  0.
   154  1.53  0.  0.
   155  1.54  0.  0.
   156  1.55  0.  0.
   157  1.56  0.  0.
   158  1.57  0.  0.
   159  1.58  0.  0.
   160  1.59  0.  0.
   161  1.60  0.  0.
   162  1.61  0.  0.
   163  1.62  0.  0.
   164  1.63  0.  0.
   165  1.64  0.  0.
   166  1.65  0.  0.
   167  1.66  0.  0.
   168  1.67  0.  0.
   169  1.68  0.  0.
   170  1.69  0.  0.
   171  1.70  0.  0.
   172  1.71  0.  0.
   173  1.72  0.  0.
   174  1.73  0.  0.
   175  1.74  0.  0.
   176  1.75  0.  0.
   177  1.76  0.  0.
   178  1.77  0.  0.
   179  1.78  0.  0.
   180  1.79  0.  0.
   181  1.80  0.  0.
   182  1.81  0.  0.
   183  1.82  0.  0.
   184  1.83  0.  0.
   185  1.84  0.  0.
   186  1.85  0.  0.
   187  1.86  0.  0.
   188  1.87  0.  0.
   189  1.88  0.  0.
   190  1.89  0.  0.
   191  1.90  0.  0.
   192  1.91  0.  0.
   193  1.92  0.  0.
   194  1.93  0.  0.
   195  1.94  0.  0.
   196  1.95  0.  0.
   197  1.96  0.  0.
   198  1.97  0.  0.
   199  1.98  0.  0.
   200  1.99  0.  0.
   201  2.00  0.  0.
   202  2.01  0.  0.
   203  2.02  0.  0.
   204  2.03  0.  0.
   205  2.04  0.  0.
   206  2.05  0.  0.
   207  2.06  0.  0.
   208  2.07  0.  0.
   209  2.08  0.  0.
   210  2.09  0.  0.
   211  2.10  0.  0.
   212  2.11  0.  0.
   213  2.12  0.  0.
   214  2.13  0.  0.
   215  2.14  0.  0.
   216  2.15  0.  0.
   217  2.16  0.  0.
   218  2.17  0.  0.
   219  2.18  0.  0.
   220  2.19  0.  0.
   221  2.20  0.  0.
   222  2.21  0.  0.
   223  2.22  0.  0.
   224  2.23  0.  0.
   225  2.24  0.  0.
   226  2.25  0.  0.
   227  2.26  0.  0.
   228  2.27  0.  0.
   229  2.28  0.  0.
   230  2.29  0.  0.
   231  2.30  0.  0.
   232  2.31  0.  0.
   233  2.32  0.  0.
   234  2.33  0.  0.
   235  2.34  0.  0.
   236  2.35  0.  0.
   237  2.36  0.  0.
   238  2.37  0.  0.
   239  2.38  0.  0.
   240  2.39  0.  0.
   241  2.40  0.  0.
   242  2.41  0.  0.
   243  2.42  0.  0.
   244  2.43  0.  0.
   245  2.44  0.  0.
   246  2.45  0.  0.
   247  2.46  0.  0.
   248  2.47  0.  0.
   249  2.48  0.  0.
   250  2.49  0.  0.
   251  2.50  0.  0.
   252  2.51  0.  0.
   253  2.52  0.  0.
   254  2.53  0.  0.
   255  2.54  0.  0.
   256  2.55  0.  0.
   257  2.56  0.  0.
   258  2.57  0.  0.
   259  2.58  0.  0.
   260  2.59  0.  0.
   261  2.60  0.  0.
   262  2.61  0.  0.
   263  2.62  0.  0.
   264  2.63  0.  0.
   265  2.64  0.  0.
   266  2.65  0.  0.
   267  2.66  0.  0.
   268  2.67  0.  0.
   269  2.68  0.  0.
   270  2.69  0.  0.
   271  2.70  0.  0.
   272  2.71  0.  0.
   273  2.72  0.  0.
   274  2.73  0.  0.
   275  2.74  0.  0.
   276  2.75  0.  0.
   277  2.76  0.  0.
   278  2.77  0.  0.
   279  2.78  0.  0.
   280  2.79  0.  0.
   281  2.80  0.  0.
   282  2.81  0.  0.
   283  2.82  0.  0.
   284  2.83  0.  0.
   285  2.84  0.  0.
   286  2.85  0.  0.
   287  2.86  0.  0.
   288  2.87  0.  0.
   289  2.88  0.  0.
   290  2.89  0.  0.
   291  2.90  0.  0.
   292  2.91  0.  0.
   293  2.92  0.  0.
   294  2.93  0.  0.
   295  2.94  0.  0.
   296  2.95  0.  0.
   297  2.96  0.  0.
   298  2.97  0.  0.
   299  2.98  0.  0.
   300  2.99  0.  0.
   301  3.00  0.  0.
   302  3.01  0.  0.
   303  3.02  0.  0.
   304  3.03  0.  0.
   305  3.04  0.  0.
   306  3.05  0.  0.
   307  3.06  0.  0.
   308  3.07  0.  0.
   309  3.08  0.  0.
   310  3.09  0.  0.
   311  3.10  0.  0.
   312  3.11  0.  0.
   313  3.12  0.  0.
   314  3.13  0.  0.
   315  3.14  0.  0.
   316  3.15  0.  0.
   317  3.16  0.  0.
   318  3.17  0.  0.
   319  3.18  0.  0.
   320  3.19  0.  0.
   321  3.20  0.  0.
   322  3.21  0.  0.
   323  3.22  0.  0.
   324  3.23  0.  0.
   325  3.24  0.  0.
   326  3.25  0.  0.
   327  3.26  0.  0.
   328  3.27  0.  0.
   329  3.28  0.  0.
   330  3.29  0.  0.
   331  3.30  0.  0.
   332  3.31  0.  0.
   333  3.32  0.  0.
   334  3.33  0.  0.
   335  3.34  0.  0.
   336  3.35  0.  0.
   337  3.36  0.  0.
   338  3.37  0.  0.
   339  3.38  0.  0.
   340  3.39  0.  0.
   341  3.40  0.  0.
   342  3.41  0.  0.
   343  3.42  0.  0.
   344  3.43  0.  0.
   345  3.44  0.  0.
   346  3.45  0.  0.
   347  3.46  0.  0.
   348  3.47  0.  0.
   349  3.48  0.  0.
   350  3.49  0.  0.
   351  3.50  0.  0.
   352  3.51  0.  0.
   353  3.52  0.  0.
   354  3.53  0.  0.
   355  3.54  0.  0.
   356  3.55  0.  0.
   357  3.56  0.  0.
   358  3.57  0.  0.
   359  3.58  0.  0.
   360  3.59  0.  0.
   361  3.60  0.  0.
   362  3.61  0.  0.
   363  3.62  0.  0.
   364  3.63  0.  0.
   365  3.64  0.  0.
   366  3.65  0.  0.
   367  3.66  0.  0.
   368  3.67  0.  0.
   369  3.68  0.  0.
   370  3.69  0.  0.
   371  3.70  0.  0.
   372  3.71  0.  0.
   373  3.72  0.  0.
   374  3.73  0.  0.
   375  3.74  0.  0.
   376  3.75  0.  0.
   377  3.76  0.  0.
   378  3.77  0.  0.
   379  3.78  0.  0.
   380  3.79  0.  0.
   381  3.80  0.  0.
   382  3.81  0.  0.
   383  3.82  0.  0.
   384  3.83  0.  0.
   385  3.84  0.  0.
   386  3.85  0.  0.
   387  3.86  0.  0.
   388  3.87  0.  0.
   389  3.88  0.  0.
   390  3.89  0.  0.
   391  3.90  0.  0.
   392  3.91  0.  0.
   393  3.92  0.  0.
   394  3.93  0.  0.
   395  3.94  0.  0.
   396  3.95  0.  0.
   397  3.96  0.  0.
   398  3.97  0.  0.
   399  3.98  0.  0.
   400  3.99  0.  0.
   401  4.00  0.  0.
   402  4.01  0.  0.
   403  4.02  0.  0.
   404  4.03  0.  0.
   405  4.04  0.  0.
   406  4.05  0.  0.
   407  4.06  0.  0.
   408  4.07  0.  0.
   409  4.08  0.  0.
   410  4.09  0.  0.
   411  4.10  0.  0.
   412  4.11  0.  0.
   413  4.12  0.  0.
   414  4.13  0.  0.
   415  4.14  0.  0.
   416  4.15  0.  0.
   417  4.16  0.  0.
   418  4.17  0.  0.
   419  4.18  0.  0.
   420  4.19  0.  0.
   421  4.20  0.  0.
   422  4.21  0.  0.
   423  4.22  0.  0.
   424  4.23  0.  0.
   425  4.24  0.  0.
   426  4.25  0.  0.
   427  4.26  0.  0.
   428  4.27  0.  0.
   429  4.28  0.  0.
   430  4.29  0.  0.
   431  4.30  0.  0.
   432  4.31  0.  0.
   433  4.32  0.  0.
   434  4.33  0.  0.
   435  4.34  0.  0.
   436  4.35  0.  0.
   437  4.36  0.  0.
   438  4.37  0.  0.
   439  4.38  0.  0.
   440  4.39  0.  0.
   441  4.40  0.  0.
   442  4.41  0.  0.
   443  4.42  0.  0.
   444  4.43  0.  0.
   445  4.44  0.  0.
   446  4.45  0.  0.
   447  4.46  0.  0.
   448  4.47  0.  0.
   449  4.48  0.  0.
   450  4.49  0.  0.
   451  4.50  0.  0.
   452  4.51  0.  0.
   453  4.52  0.  0.
   454  4.53  0.  0.
   455  4.54  0.  0.
   456  4.55  0.  0.
   457  4.56  0.  0.
   458  4.57  0.  0.
   459  4.58  0.  0.
   460  4.59  0.  0.
   461  4.60  0.  0.
   462  4.61  0.  0.
   463  4.62  0.  0.
   464  4.63  0.  0.
   465  4.64  0.  0.
   466  4.65  0.  0.
   467  4.66  0.  0.
   468  4.67  0.  0.
   469  4.68  0.  0.
   470  4.69  0.  0.
   471  4.70  0.  0.
   472  4.71  0.  0.
   473  4.72  0.  0.
   474  4.73  0.  0.
   475  4.74  0.  0.
   476  4.75  0.  0.
   477  4.76  0.  0.
   478  4.77  0.  0.
   479  4.78  0.  0.
   480  4.79  0.  0.
   481  4.80  0.  0.
   482  4.81  0.  0.
   483  4.82  0.  0.
   484  4.83  0.  0.
   485  4.84  0.  0.
   486  4.85  0.  0.
   487  4.86  0.  0.
   488  4.87  0.  0.
   489  4.88  0.  0.
   490  4.89  0.  0.
   491  4.90  0.  0.
   492  4.91  0.  0.
   493  4.92  0.  0.
   494  4.93  0.  0.
   495  4.94  0.  0.
   496  4.95  0.  0.
   497  4.96  0.  0.
   498  4.97  0.  0.
   499  4.98  0.  0.
   500  4.99  0.  0.
   501  5.00  0.  0.
   502  5.01  0.  0.
   503  5.02  0.  0.
   504  5.03  0.  0.
   505  5.04  0.  0.
   506  5.05  0.  0.
   507  5.06  0.  0.
   508  5.07  0.  0.
   509  5.08  0.  0.
   510  5.09  0.  0.
   511  5.10  0.  0.
   512  5.11  0.  0.
   513  5.12  0.  0.
   514  5.13  0.  0.
   515  5.14  0.  0.
   516  5.15  0.  0.
   517  5.16  0.  0.
   518  5.17  0.  0.
   519  5.18  0.  0.
   520  5.19  0.  0.
   521  5.20  0.  0.
   522  5.21  0.  0.
   523  5.22  0.  0.
   524  5.23  0.  0.
   525  5.24  0.  0.
   526  5.25  0.  0.
   527  5.26  0.  0.
   528  5.27  0.  0.
   529  5.28  0.  0.
   530  5.29  0.  0.
   531  5.30  0.  0.
   532  5.31  0.  0.
   533  5.32  0.  0.
   534  5.33  0.  0.
   535  5.34  0.  0.
   536  5.35  0.  0.
   537  5.36  0.  0.
   538  5.37  0.  0.
   539  5.38  0.  0.
   540  5.39  0.  0.
   541  5.40  0.  0.
   542  5.41  0.  0.
   543  5.42  0.  0.
   544  5.43  0.  0.
   545  5.44  0.  0.
   546  5.45  0.  0.
   547  5.46  0.  0.
   548  5.47  0.  0.
   549  5.48  0.  0.
   550  5.49  0.  0.
   551  5.50  0.  0.
   552  5.51  0.  0.
   553  5.52  0.  0.
   554  5.53  0.  0.
   555  5.54  0.  0.
   556  5.55  0.  0.
   557  5.56  0.  0.
   558  5.57  0.  0.
   559  5.58  0.  0.
   560  5.59  0.  0.
   561  5.60  0.  0.
   562  5.61  0.  0.
   563  5.62  0.  0.
   564  5.63  0.  0.
   565  5.64  0.  0.
   566  5.65  0.  0.
   567  5.66  0.  0.
   568  5.67  0.  0.
   569  5.68  0.  0.
   570  5.69  0.  0.
   571  5.70  0.  0.
   572  5.71  0.  0.
   573  5.72  0.  0.
   574  5.73  0.  0.
   575  5.74  0.  0.
   576  5.75  0.  0.
   577  5.76  0.  0.
   578  5.77  0.  0.
   579  5.78  0.  0.
   580  5.79  0.  0.
   581  5.80  0.  0.
   582  5.81  0.  0.
   583  5.82  0.  0.
   584  5.83  0.  0.
   585  5.84  0.  0.
   586  5.85  0.  0.
   587  5.86  0.  0.
   588  5.87  0.  0.
   589  5.88  0.  0.
   590  5.89  0.  0.
   591  5.90  0.  0.
   592  5.91  0.  0.
   593  5.92  0.  0.
   594  5.93  0.  0.
   595  5.94  0.  0.
   596  5.95  0.  0.
   597  5.96  0.  0.
   598  5.97  0.  0.
   599  5.98  0.  0.
   600  5.99  0.  0.
   1                        -7.5078891757212E-01
     1  0.0000000000000E+00 -7.9294010524311E-09
     2  1.0000000000000E-02 -2.2400206268773E-03
     3  2.0000000000000E-02 -8.9419331488209E-03
     4  3.0000000000000E-02 -2.0051544004008E-02
     5  4.0000000000000E-02 -3.5479374292553E-02
     6  5.0000000000000E-02 -5.5101909050975E-02
     7  6.0000000000000E-02 -7.8763314002938E-02
     8  7.0000000000000E-02 -1.0627758830932E-01
     9  8.0000000000000E-02 -1.3743111391127E-01
    10  9.0000000000000E-02 -1.7198555490022E-01
    11  1.0000000000000E-01 -2.0968105409803E-01
    12  1.1000000000000E-01 -2.5023966881120E-01
    13  1.2000000000000E-01 -2.9336898363654E-01
    14  1.3000000000000E-01 -3.3876583532244E-01
    15  1.4000000000000E-01 -3.8612008308484E-01
    16  1.5000000000000E-01 -4.3511835747208E-01
    17  1.6000000000000E-01 -4.8544772187326E-01
    18  1.7000000000000E-01 -5.3679918305012E-01
    19  1.8000000000000E-01 -5.8887099059851E-01
    20  1.9000000000000E-01 -6.4137166994082E-01
    21  2.0000000000000E-01 -6.9402273922405E-01
    22  2.1000000000000E-01 -7.4656106723426E-01
    23  2.2000000000000E-01 -7.9874083700334E-01
    24  2.3000000000000E-01 -8.5033508802998E-01
    25  2.4000000000000E-01 -9.0113681879723E-01
    26  2.5000000000000E-01 -9.5095964037269E-01
    27  2.6000000000000E-01 -9.9963798114070E-01
    28  2.7000000000000E-01 -1.0470268519553E+00
    29  2.8000000000000E-01 -1.0930011900331E+00
    30  2.9000000000000E-01 -1.1374548085446E+00
    31  3.0000000000000E-01 -1.1802989869384E+00
    32  3.1000000000000E-01 -1.2214607443810E+00
    33  3.2000000000000E-01 -1.2608808451630E+00
    34  3.3000000000000E-01 -1.2985115903872E+00
    35  3.4000000000000E-01 -1.3343144545883E+00
    36  3.5000000000000E-01 -1.3682576290586E+00
    37  3.6000000000000E-01 -1.4003135354966E+00
    38  3.7000000000000E-01 -1.4304563741112E+00
    39  3.8000000000000E-01 -1.4586597694915E+00
    40  3.9000000000000E-01 -1.4848945753989E+00
    41  4.0000000000000E-01 -1.5091268961872E+00
    42  4.1000000000000E-01 -1.5313163778812E+00
    43  4.2000000000000E-01 -1.5514148161159E+00
    44  4.3000000000000E-01 -1.5693651212826E+00
    45  4.4000000000000E-01 -1.5851006734686E+00
    46  4.5000000000000E-01 -1.5985450912626E+00
    47  4.6000000000000E-01 -1.6096124294034E+00
    48  4.7000000000000E-01 -1.6182078107420E+00
    49  4.8000000000000E-01 -1.6242284882685E+00
    50  4.9000000000000E-01 -1.6275653232062E+00
    51  5.0000000000000E-01 -1.6281046556038E+00
    52  5.1000000000000E-01 -1.6257305346475E+00
    53  5.2000000000000E-01 -1.6203272672658E+00
    54  5.3000000000000E-01 -1.6117822356811E+00
    55  5.4000000000000E-01 -1.5999889275477E+00
    56  5.5000000000000E-01 -1.5848501163544E+00
    57  5.6000000000000E-01 -1.5662811249880E+00
    58  5.7000000000000E-01 -1.5442131018671E+00
    59  5.8000000000000E-01 -1.5185962369487E+00
    60  5.9000000000000E-01 -1.4894028442322E+00
    61  6.0000000000000E-01 -1.4566302381863E+00
    62  6.1000000000000E-01 -1.4203033337869E+00
    63  6.2000000000000E-01 -1.3804769035719E+00
    64  6.3000000000000E-01 -1.3372374302245E+00
    65  6.4000000000000E-01 -1.2907044996175E+00
    66  6.5000000000000E-01 -1.2410316868799E+00
    67  6.6000000000000E-01 -1.1884068967447E+00
    68  6.7000000000000E-01 -1.1330521290647E+00
    69  6.8000000000000E-01 -1.0752226507509E+00
    70  6.9000000000000E-01 -1.0152055663241E+00
    71  7.0000000000000E-01 -9.5331779055978E-01
    72  7.1000000000000E-01 -8.8990343814921E-01
    73  7.2000000000000E-01 -8.2533065667120E-01
    74  7.3000000000000E-01 -7.5998794026245E-01
    75  7.4000000000000E-01 -6.9427997196768E-01
    76  7.5000000000000E-01 -6.2862305264409E-01
    77  7.6000000000000E-01 -5.6344018328863E-01
    78  7.7000000000000E-01 -4.9915587557449E-01
    79  7.8000000000000E-01 -4.3619077205989E-01
    80  7.9000000000000E-01 -3.7495616282972E-01
    81  8.0000000000000E-01 -3.1584848913187E-01
    82  8.1000000000000E-01 -2.5924392678607E-01
    83  8.2000000000000E-01 -2.0549314271343E-01
    84  8.3000000000000E-01 -1.5491631682831E-01
    85  8.4000000000000E-01 -1.0779851875216E-01
    86  8.5000000000000E-01 -6.4385524380777E-02
    87  8.6000000000000E-01 -2.4880151325754E-02
    88  8.7000000000000E-01  1.0560815251761E-02
    89  8.8000000000000E-01  4.1829043771763E-02
    90  8.9000000000000E-01  6.8866371787700E-02
    91  9.0000000000000E-01  9.1665774574193E-02
    92  9.1000000000000E-01  1.1027155738676E-01
    93  9.2000000000000E-01  1.2477875470977E-01
    94  9.3000000000000E-01  1.3533173292599E-01
    95  9.4000000000000E-01  1.4212200616346E-01
    96  9.5000000000000E-01  1.4538528836609E-01
    97  9.6000000000000E-01  1.4539781765731E-01
    98  9.7000000000000E-01  1.4247200158637E-01
    99  9.8000000000000E-01  1.3695144363484E-01
   100  9.9000000000000E-01  1.2920542220994E-01
   101  1.0000000000000E+00  1.1962290305139E-01
   102  1.0100000000000E+00  1.0860617435721E-01
   103  1.0200000000000E+00  9.6564200833820E-02
   104  1.0300000000000E+00  8.3905798164630E-02
   105  1.0400000000000E+00  7.1032732964270E-02
   106  1.0500000000000E+00  5.8332855077862E-02
   107  1.0600000000000E+00  4.6173378817891E-02
   108  1.0700000000000E+00  3.4894335202307E-02
   109  1.0800000000000E+00  2.4807712038103E-02
   110  1.0900000000000E+00  1.6194430660214E-02
   111  1.1000000000000E+00  9.2667797657851E-03
   112  1.1100000000000E+00  4.1900816682559E-03
   113  1.1200000000000E+00  1.0740429699806E-03
   114  1.1300000000000E+00  5.8933991039408E-06
   115  1.1400000000000E+00  6.9333254125094E-06
   116  1.1500000000000E+00 -3.8432084217397E-07
   117  1.16  0.
   118  1.17  0.
   119  1.18  0.
   120  1.19  0.
   121  1.20  0.
   122  1.21  0.
   123  1.22  0.
   124  1.23  0.
   125  1.24  0.
   126  1.25  0.
   127  1.26  0.
   128  1.27  0.
   129  1.28  0.
   130  1.29  0.
   131  1.30  0.
   132  1.31  0.
   133  1.32  0.
   134  1.33  0.
   135  1.34  0.
   136  1.35  0.
   137  1.36  0.
   138  1.37  0.
   139  1.38  0.
   140  1.39  0.
   141  1.40  0.
   142  1.41  0.
   143  1.42  0.
   144  1.43  0.
   145  1.44  0.
   146  1.45  0.
   147  1.46  0.
   148  1.47  0.
   149  1.48  0.
   150  1.49  0.
   151  1.50  0.
   152  1.51  0.
   153  1.52  0.
   154  1.53  0.
   155  1.54  0.
   156  1.55  0.
   157  1.56  0.
   158  1.57  0.
   159  1.58  0.
   160  1.59  0.
   161  1.60  0.
   162  1.61  0.
   163  1.62  0.
   164  1.63  0.
   165  1.64  0.
   166  1.65  0.
   167  1.66  0.
   168  1.67  0.
   169  1.68  0.
   170  1.69  0.
   171  1.70  0.
   172  1.71  0.
   173  1.72  0.
   174  1.73  0.
   175  1.74  0.
   176  1.75  0.
   177  1.76  0.
   178  1.77  0.
   179  1.78  0.
   180  1.79  0.
   181  1.80  0.
   182  1.81  0.
   183  1.82  0.
   184  1.83  0.
   185  1.84  0.
   186  1.85  0.
   187  1.86  0.
   188  1.87  0.
   189  1.88  0.
   190  1.89  0.
   191  1.90  0.
   192  1.91  0.
   193  1.92  0.
   194  1.93  0.
   195  1.94  0.
   196  1.95  0.
   197  1.96  0.
   198  1.97  0.
   199  1.98  0.
   200  1.99  0.
   201  2.00  0.
   202  2.01  0.
   203  2.02  0.
   204  2.03  0.
   205  2.04  0.
   206  2.05  0.
   207  2.06  0.
   208  2.07  0.
   209  2.08  0.
   210  2.09  0.
   211  2.10  0.
   212  2.11  0.
   213  2.12  0.
   214  2.13  0.
   215  2.14  0.
   216  2.15  0.
   217  2.16  0.
   218  2.17  0.
   219  2.18  0.
   220  2.19  0.
   221  2.20  0.
   222  2.21  0.
   223  2.22  0.
   224  2.23  0.
   225  2.24  0.
   226  2.25  0.
   227  2.26  0.
   228  2.27  0.
   229  2.28  0.
   230  2.29  0.
   231  2.30  0.
   232  2.31  0.
   233  2.32  0.
   234  2.33  0.
   235  2.34  0.
   236  2.35  0.
   237  2.36  0.
   238  2.37  0.
   239  2.38  0.
   240  2.39  0.
   241  2.40  0.
   242  2.41  0.
   243  2.42  0.
   244  2.43  0.
   245  2.44  0.
   246  2.45  0.
   247  2.46  0.
   248  2.47  0.
   249  2.48  0.
   250  2.49  0.
   251  2.50  0.
   252  2.51  0.
   253  2.52  0.
   254  2.53  0.
   255  2.54  0.
   256  2.55  0.
   257  2.56  0.
   258  2.57  0.
   259  2.58  0.
   260  2.59  0.
   261  2.60  0.
   262  2.61  0.
   263  2.62  0.
   264  2.63  0.
   265  2.64  0.
   266  2.65  0.
   267  2.66  0.
   268  2.67  0.
   269  2.68  0.
   270  2.69  0.
   271  2.70  0.
   272  2.71  0.
   273  2.72  0.
   274  2.73  0.
   275  2.74  0.
   276  2.75  0.
   277  2.76  0.
   278  2.77  0.
   279  2.78  0.
   280  2.79  0.
   281  2.80  0.
   282  2.81  0.
   283  2.82  0.
   284  2.83  0.
   285  2.84  0.
   286  2.85  0.
   287  2.86  0.
   288  2.87  0.
   289  2.88  0.
   290  2.89  0.
   291  2.90  0.
   292  2.91  0.
   293  2.92  0.
   294  2.93  0.
   295  2.94  0.
   296  2.95  0.
   297  2.96  0.
   298  2.97  0.
   299  2.98  0.
   300  2.99  0.
   301  3.00  0.
   302  3.01  0.
   303  3.02  0.
   304  3.03  0.
   305  3.04  0.
   306  3.05  0.
   307  3.06  0.
   308  3.07  0.
   309  3.08  0.
   310  3.09  0.
   311  3.10  0.
   312  3.11  0.
   313  3.12  0.
   314  3.13  0.
   315  3.14  0.
   316  3.15  0.
   317  3.16  0.
   318  3.17  0.
   319  3.18  0.
   320  3.19  0.
   321  3.20  0.
   322  3.21  0.
   323  3.22  0.
   324  3.23  0.
   325  3.24  0.
   326  3.25  0.
   327  3.26  0.
   328  3.27  0.
   329  3.28  0.
   330  3.29  0.
   331  3.30  0.
   332  3.31  0.
   333  3.32  0.
   334  3.33  0.
   335  3.34  0.
   336  3.35  0.
   337  3.36  0.
   338  3.37  0.
   339  3.38  0.
   340  3.39  0.
   341  3.40  0.
   342  3.41  0.
   343  3.42  0.
   344  3.43  0.
   345  3.44  0.
   346  3.45  0.
   347  3.46  0.
   348  3.47  0.
   349  3.48  0.
   350  3.49  0.
   351  3.50  0.
   352  3.51  0.
   353  3.52  0.
   354  3.53  0.
   355  3.54  0.
   356  3.55  0.
   357  3.56  0.
   358  3.57  0.
   359  3.58  0.
   360  3.59  0.
   361  3.60  0.
   362  3.61  0.
   363  3.62  0.
   364  3.63  0.
   365  3.64  0.
   366  3.65  0.
   367  3.66  0.
   368  3.67  0.
   369  3.68  0.
   370  3.69  0.
   371  3.70  0.
   372  3.71  0.
   373  3.72  0.
   374  3.73  0.
   375  3.74  0.
   376  3.75  0.
   377  3.76  0.
   378  3.77  0.
   379  3.78  0.
   380  3.79  0.
   381  3.80  0.
   382  3.81  0.
   383  3.82  0.
   384  3.83  0.
   385  3.84  0.
   386  3.85  0.
   387  3.86  0.
   388  3.87  0.
   389  3.88  0.
   390  3.89  0.
   391  3.90  0.
   392  3.91  0.
   393  3.92  0.
   394  3.93  0.
   395  3.94  0.
   396  3.95  0.
   397  3.96  0.
   398  3.97  0.
   399  3.98  0.
   400  3.99  0.
   401  4.00  0.
   402  4.01  0.
   403  4.02  0.
   404  4.03  0.
   405  4.04  0.
   406  4.05  0.
   407  4.06  0.
   408  4.07  0.
   409  4.08  0.
   410  4.09  0.