B     ONCVPSP-4.0.1  r_core=   1.70784   1.45312
      5.0000      3.0000      230118    zatom,zion,pspd
     8       2   1     4   600     0    pspcod,pspxc,lmax,lloc,mmax,r2well
  5.99000000  2.90000000  0.00000000    rchrg fchrg qchrg
     2     2     0     0     0    nproj
     1     1           extension_switch
   0                         1.3440759940949E+01  1.3760048618163E+00
     1  0.0000000000000E+00  1.7150225684048E-10 -2.6448437884241E-10
     2  1.0000000000000E-02  8.5927357831261E-02 -4.3714707765479E-02
     3  2.0000000000000E-02  1.7163727193038E-01 -8.7192297612951E-02
     4  3.0000000000000E-02  2.5691284174277E-01 -1.3019643385532E-01
     5  4.0000000000000E-02  3.4153825401788E-01 -1.7249234632046E-01
     6  5.0000000000000E-02  4.2529932878898E-01 -2.1384761567269E-01
     7  6.0000000000000E-02  5.0798406802201E-01 -2.5403296161890E-01
     8  7.0000000000000E-02  5.8938320761822E-01 -2.9282303464453E-01
     9  8.0000000000000E-02  6.6929077328384E-01 -3.2999721165981E-01
    10  9.0000000000000E-02  7.4750464057081E-01 -3.6534039561458E-01
    11  1.0000000000000E-01  8.2382709914888E-01 -3.9864381876548E-01
    12  1.1000000000000E-01  8.9806542109538E-01 -4.2970584885879E-01
    13  1.2000000000000E-01  9.7003243268903E-01 -4.5833279703326E-01
    14  1.3000000000000E-01  1.0395470888722E+00 -4.8433972575686E-01
    15  1.4000000000000E-01  1.1064350492098E+00 -5.0755125459993E-01
    16  1.5000000000000E-01  1.1705292538237E+00 -5.2780236112114E-01
    17  1.6000000000000E-01  1.2316704974326E+00 -5.4493917361441E-01
    18  1.7000000000000E-01  1.2897079992730E+00 -5.5881975194120E-01
    19  1.8000000000000E-01  1.3444999663366E+00 -5.6931485216653E-01
    20  1.9000000000000E-01  1.3959141470303E+00 -5.7630867023482E-01
    21  2.0000000000000E-01  1.4438283720544E+00 -5.7969955947616E-01
    22  2.1000000000000E-01  1.4881310790109E+00 -5.7940071633206E-01
    23  2.2000000000000E-01  1.5287218170034E+00 -5.7534082834246E-01
    24  2.3000000000000E-01  1.5655117272700E+00 -5.6746467814974E-01
    25  2.4000000000000E-01  1.5984239957200E+00 -5.5573369705935E-01
    26  2.5000000000000E-01  1.6273942731132E+00 -5.4012646155776E-01
    27  2.6000000000000E-01  1.6523710585423E+00 -5.2063912613041E-01
    28  2.7000000000000E-01  1.6733160418519E+00 -4.9728578575319E-01
    29  2.8000000000000E-01  1.6902044006569E+00 -4.7009876155166E-01
    30  2.9000000000000E-01  1.7030250477073E+00 -4.3912880333771E-01
    31  3.0000000000000E-01  1.7117808244941E+00 -4.0444520304233E-01
    32  3.1000000000000E-01  1.7164886371900E+00 -3.6613581346963E-01
    33  3.2000000000000E-01  1.7171795312846E+00 -3.2430696729517E-01
    34  3.3000000000000E-01  1.7138987015888E+00 -2.7908329182274E-01
    35  3.4000000000000E-01  1.7067054346619E+00 -2.3060741569181E-01
    36  3.5000000000000E-01  1.6956729811360E+00 -1.7903956448857E-01
    37  3.6000000000000E-01  1.6808883558943E+00 -1.2455704305019E-01
    38  3.7000000000000E-01  1.6624520645766E+00 -6.7353603157976E-02
    39  3.8000000000000E-01  1.6404777554476E+00 -7.6386962803578E-03
    40  3.9000000000000E-01  1.6150917962599E+00  5.4363387956783E-02
    41  4.0000000000000E-01  1.5864327763657E+00  1.1841449583811E-01
    42  4.1000000000000E-01  1.5546509349810E+00  1.8426369334628E-01
    43  4.2000000000000E-01  1.5199075171624E+00  2.5164845574714E-01
    44  4.3000000000000E-01  1.4823740597303E+00  3.2029595794404E-01
    45  4.4000000000000E-01  1.4422316100406E+00  3.8992445947421E-01
    46  4.5000000000000E-01  1.3996698811677E+00  4.6024477694177E-01
    47  4.6000000000000E-01  1.3548863477121E+00  5.3096183563816E-01
    48  4.7000000000000E-01  1.3080852870695E+00  6.0177629110367E-01
    49  4.8000000000000E-01  1.2594767715930E+00  6.7238621044472E-01
    50  4.9000000000000E-01  1.2092756176401E+00  7.4248880235520E-01
    51  5.0000000000000E-01  1.1577002980082E+00  8.1178218400466E-01
    52  5.1000000000000E-01  1.1049718247263E+00  8.7996717226426E-01
    53  5.2000000000000E-01  1.0513126095779E+00  9.4674908615243E-01
    54  5.3000000000000E-01  9.9694531007435E-01  1.0118395469032E+00
    55  5.4000000000000E-01  9.4209166887733E-01  1.0749582617016E+00
    56  5.5000000000000E-01  8.8697135487476E-01  1.1358347768935E+00
    57  5.6000000000000E-01  8.3180081425072E-01  1.1942101863727E+00
    58  5.7000000000000E-01  7.7679213994563E-01  1.2498387808756E+00
    59  5.8000000000000E-01  7.2215196788433E-01  1.3024896240706E+00
    60  5.9000000000000E-01  6.6808040824971E-01  1.3519480416308E+00
    61  6.0000000000000E-01  6.1477001990441E-01  1.3980170099011E+00
    62  6.1000000000000E-01  5.6240483580835E-01  1.4405184313347E+00
    63  6.2000000000000E-01  5.1115944695202E-01  1.4792942845555E+00
    64  6.3000000000000E-01  4.6119815192460E-01  1.5142076377089E+00
    65  6.4000000000000E-01  4.1267417876725E-01  1.5451435146816E+00
    66  6.5000000000000E-01  3.6572898522890E-01  1.5720096047935E+00
    67  6.6000000000000E-01  3.2049164295107E-01  1.5947368076783E+00
    68  6.7000000000000E-01  2.7707831046391E-01  1.6132796062743E+00
    69  6.8000000000000E-01  2.3559179918526E-01  1.6276162621151E+00
    70  6.9000000000000E-01  1.9612123588546E-01  1.6377488284430E+00
    71  7.0000000000000E-01  1.5874182431826E-01  1.6437029780457E+00
    72  7.1000000000000E-01  1.2351470793381E-01  1.6455276441260E+00
    73  7.2000000000000E-01  9.0486934785698E-02  1.6432944739432E+00
    74  7.3000000000000E-01  5.9691524935746E-02  1.6370970963967E+00
    75  7.4000000000000E-01  3.1147639847197E-02  1.6270502061484E+00
    76  7.5000000000000E-01  4.8608524558330E-03  1.6132884682757E+00
    77  7.6000000000000E-01 -1.9176484180418E-02  1.5959652488125E+00
    78  7.7000000000000E-01 -4.0984772517552E-02  1.5752511778502E+00
    79  7.8000000000000E-01 -6.0596614045921E-02  1.5513325531193E+00
    80  7.9000000000000E-01 -7.8056164992341E-02  1.5244095931523E+00
    81  8.0000000000000E-01 -9.3418409157014E-02  1.4946945502259E+00
    82  8.1000000000000E-01 -1.0674835344523E-01  1.4624096942830E+00
    83  8.2000000000000E-01 -1.1812015220905E-01  1.4277851799396E+00
    84  8.3000000000000E-01 -1.2761616701029E-01  1.3910568094806E+00
    85  8.4000000000000E-01 -1.3532596885382E-01  1.3524637054336E+00
    86  8.5000000000000E-01 -1.4134529031297E-01  1.3122459068849E+00
    87  8.6000000000000E-01 -1.4577493527760E-01  1.2706419041511E+00
    88  8.7000000000000E-01 -1.4871965429809E-01  1.2278861267620E+00
    89  8.8000000000000E-01 -1.5028699367465E-01  1.1842063999243E+00
    90  8.9000000000000E-01 -1.5058612654598E-01  1.1398213846595E+00
    91  9.0000000000000E-01 -1.4972667437549E-01  1.0949380181524E+00
    92  9.1000000000000E-01 -1.4781755292374E-01  1.0497493369527E+00
    93  9.2000000000000E-01 -1.4496619942933E-01  1.0044368759519E+00
    94  9.3000000000000E-01 -1.4127816375913E-01  9.5917452783128E-01
    95  9.4000000000000E-01 -1.3685659594182E-01  9.1412837063474E-01
    96  9.5000000000000E-01 -1.3180175559912E-01  8.6945607536264E-01
    97  9.6000000000000E-01 -1.2621057072424E-01  8.2530639570412E-01
    98  9.7000000000000E-01 -1.2017624626683E-01  7.8181874197540E-01
    99  9.8000000000000E-01 -1.1378792246619E-01  7.3912283828911E-01
   100  9.9000000000000E-01 -1.0713038247665E-01  6.9733846162327E-01
   101  1.0000000000000E+00 -1.0028380842782E-01  6.5657526074315E-01
   102  1.0100000000000E+00 -9.3323584679941E-02  6.1693265224451E-01
   103  1.0200000000000E+00 -8.6320146677760E-02  5.7849979034741E-01
   104  1.0300000000000E+00 -7.9338873471818E-02  5.4135560647443E-01
   105  1.0400000000000E+00 -7.2440021678450E-02  5.0556891412295E-01
   106  1.0500000000000E+00 -6.5678698381600E-02  4.7119857407628E-01
   107  1.0600000000000E+00 -5.9104870251920E-02  4.3829371461320E-01
   108  1.0700000000000E+00 -5.2763405970571E-02  4.0689400106914E-01
   109  1.0800000000000E+00 -4.6694148898467E-02  3.7702994887685E-01
   110  1.0900000000000E+00 -4.0932016829503E-02  3.4872327407612E-01
   111  1.1000000000000E+00 -3.5507125607836E-02  3.2198727522777E-01
   112  1.1100000000000E+00 -3.0444933374846E-02  2.9682724069796E-01
   113  1.1200000000000E+00 -2.5766402240614E-02  2.7324087539151E-01
   114  1.1300000000000E+00 -2.1488174246608E-02  2.5121874120662E-01
   115  1.1400000000000E+00 -1.7622758596799E-02  2.3074470574795E-01
   116  1.1500000000000E+00 -1.4178727285502E-02  2.1179639417482E-01
   117  1.1600000000000E+00 -1.1160916432324E-02  1.9434563945674E-01
   118  1.1700000000000E+00 -8.5706308517710E-03  1.7835892676702E-01
   119  1.1800000000000E+00 -6.4058496258993E-03  1.6379782824450E-01
   120  1.1900000000000E+00 -4.6614307157693E-03  1.5061942489930E-01
   121  1.2000000000000E+00 -3.3293129293396E-03  1.3877671300644E-01
   122  1.2100000000000E+00 -2.3987138631961E-03  1.2821899292896E-01
   123  1.2200000000000E+00 -1.8563227402536E-03  1.1889223891412E-01
   124  1.2300000000000E+00 -1.6864873770107E-03  1.1073944901581E-01
   125  1.2400000000000E+00 -1.8713948223650E-03  1.0370097489561E-01
   126  1.2500000000000E+00 -2.3912455130161E-03  9.7714831838552E-02
   127  1.2600000000000E+00 -3.2244210835497E-03  9.2716989880063E-02
   128  1.2700000000000E+00 -4.3476462456391E-03  8.8641647464688E-02
   129  1.2800000000000E+00 -5.7361454083944E-03  8.5421489540772E-02
   130  1.2900000000000E+00 -7.3637949468949E-03  8.2987932433182E-02
   131  1.3000000000000E+00 -9.2032722323887E-03  8.1271358214886E-02
   132  1.3100000000000E+00 -1.1226202716430E-02  8.0201341621776E-02
   133  1.3200000000000E+00 -1.3403306504303E-02  7.9706872807623E-02
   134  1.3300000000000E+00 -1.5704545965981E-02  7.9716579428538E-02
   135  1.3400000000000E+00 -1.8099276006040E-02  8.0158951661067E-02
   136  1.3500000000000E+00 -2.0556398651182E-02  8.0962573802732E-02
   137  1.3600000000000E+00 -2.3044523615626E-02  8.2056366078991E-02
   138  1.3700000000000E+00 -2.5532136466464E-02  8.3369840179252E-02
   139  1.3800000000000E+00 -2.7987775937982E-02  8.4833371875795E-02
   140  1.3900000000000E+00 -3.0380221835323E-02  8.6378493842871E-02
   141  1.4000000000000E+00 -3.2678694826749E-02  8.7938211494366E-02
   142  1.4100000000000E+00 -3.4853069249367E-02  8.9447344296681E-02
   143  1.4200000000000E+00 -3.6874099853580E-02  9.0842894603977E-02
   144  1.4300000000000E+00 -3.8713663183914E-02  9.2064445600862E-02
   145  1.4400000000000E+00 -4.0345014048214E-02  9.3054589442086E-02
   146  1.4500000000000E+00 -4.1743057259839E-02  9.3759386142851E-02
   147  1.4600000000000E+00 -4.2884634560773E-02  9.4128853220997E-02
   148  1.4700000000000E+00 -4.3748826344420E-02  9.4117485517564E-02
   149  1.4800000000000E+00 -4.4317267505629E-02  9.3684804044960E-02
   150  1.4900000000000E+00 -4.4574476452964E-02  9.2795932133699E-02
   151  1.5000000000000E+00 -4.4508196030318E-02  9.1422196580909E-02
   152  1.5100000000000E+00 -4.4109744815701E-02  8.9541750954057E-02
   153  1.5200000000000E+00 -4.3374377000804E-02  8.7140217683734E-02
   154  1.5300000000000E+00 -4.2301648805837E-02  8.4211345090497E-02
   155  1.5400000000000E+00 -4.0895789157996E-02  8.0757675046935E-02
   156  1.5500000000000E+00 -3.9166072160993E-02  7.6791216582103E-02
   157  1.5600000000000E+00 -3.7127188709083E-02  7.2334120394172E-02
   158  1.5700000000000E+00 -3.4799614457822E-02  6.7419348959789E-02
   159  1.5800000000000E+00 -3.2209971254371E-02  6.2091336713263E-02
   160  1.5900000000000E+00 -2.9391377729990E-02  5.6406632179694E-02
   161  1.6000000000000E+00 -2.6383804554563E-02  5.0434550446172E-02
   162  1.6100000000000E+00 -2.3234340479794E-02  4.4257662234348E-02
   163  1.6200000000000E+00 -1.9997590926792E-02  3.7972531915465E-02
   164  1.6300000000000E+00 -1.6743039932152E-02  3.1703265093711E-02
   165  1.6400000000000E+00 -1.3551126834661E-02  2.5594210252970E-02
   166  1.6500000000000E+00 -1.0488061042687E-02  1.9763637587857E-02
   167  1.6600000000000E+00 -7.6321965531568E-03  1.4352430306296E-02
   168  1.6700000000000E+00 -5.0737597462399E-03  9.5235656727990E-03
   169  1.6800000000000E+00 -2.9154486859090E-03  5.4632253914190E-03
   170  1.6900000000000E+00 -1.2642996654267E-03  2.3656214031692E-03
   171  1.7000000000000E+00 -2.6931984784931E-04  5.0322452270814E-04
   172  1.7100000000000E+00  1.9171278766041E-05 -3.5789827607867E-05
   173  1.7200000000000E+00 -4.4340812521420E-06  8.2807619858353E-06
   174  1.73  0. -0.
   175  1.74 -0.  0.
   176  1.75  0.  0.
   177  1.76  0.  0.
   178  1.77  0.  0.
   179  1.78  0.  0.
   180  1.79  0.  0.
   181  1.80  0.  0.
   182  1.81  0.  0.
   183  1.82  0.  0.
   184  1.83  0.  0.
   185  1.84  0.  0.
   186  1.85  0.  0.
   187  1.86  0.  0.
   188  1.87  0.  0.
   189  1.88  0.  0.
   190  1.89  0.  0.
   191  1.90  0.  0.
   192  1.91  0.  0.
   193  1.92  0.  0.
   194  1.93  0.  0.
   195  1.94  0.  0.
   196  1.95  0.  0.
   197  1.96  0.  0.
   198  1.97  0.  0.
   199  1.98  0.  0.
   200  1.99  0.  0.
   201  2.00  0.  0.
   202  2.01  0.  0.
   203  2.02  0.  0.
   204  2.03  0.  0.
   205  2.04  0.  0.
   206  2.05  0.  0.
   207  2.06  0.  0.
   208  2.07  0.  0.
   209  2.08  0.  0.
   210  2.09  0.  0.
   211  2.10  0.  0.
   212  2.11  0.  0.
   213  2.12  0.  0.
   214  2.13  0.  0.
   215  2.14  0.  0.
   216  2.15  0.  0.
   217  2.16  0.  0.
   218  2.17  0.  0.
   219  2.18  0.  0.
   220  2.19  0.  0.
   221  2.20  0.  0.
   222  2.21  0.  0.
   223  2.22  0.  0.
   224  2.23  0.  0.
   225  2.24  0.  0.
   226  2.25  0.  0.
   227  2.26  0.  0.
   228  2.27  0.  0.
   229  2.28  0.  0.
   230  2.29  0.  0.
   231  2.30  0.  0.
   232  2.31  0.  0.
   233  2.32  0.  0.
   234  2.33  0.  0.
   235  2.34  0.  0.
   236  2.35  0.  0.
   237  2.36  0.  0.
   238  2.37  0.  0.
   239  2.38  0.  0.
   240  2.39  0.  0.
   241  2.40  0.  0.
   242  2.41  0.  0.
   243  2.42  0.  0.
   244  2.43  0.  0.
   245  2.44  0.  0.
   246  2.45  0.  0.
   247  2.46  0.  0.
   248  2.47  0.  0.
   249  2.48  0.  0.
   250  2.49  0.  0.
   251  2.50  0.  0.
   252  2.51  0.  0.
   253  2.52  0.  0.
   254  2.53  0.  0.
   255  2.54  0.  0.
   256  2.55  0.  0.
   257  2.56  0.  0.
   258  2.57  0.  0.
   259  2.58  0.  0.
   260  2.59  0.  0.
   261  2.60  0.  0.
   262  2.61  0.  0.
   263  2.62  0.  0.
   264  2.63  0.  0.
   265  2.64  0.  0.
   266  2.65  0.  0.
   267  2.66  0.  0.
   268  2.67  0.  0.
   269  2.68  0.  0.
   270  2.69  0.  0.
   271  2.70  0.  0.
   272  2.71  0.  0.
   273  2.72  0.  0.
   274  2.73  0.  0.
   275  2.74  0.  0.
   276  2.75  0.  0.
   277  2.76  0.  0.
   278  2.77  0.  0.
   279  2.78  0.  0.
   280  2.79  0.  0.
   281  2.80  0.  0.
   282  2.81  0.  0.
   283  2.82  0.  0.
   284  2.83  0.  0.
   285  2.84  0.  0.
   286  2.85  0.  0.
   287  2.86  0.  0.
   288  2.87  0.  0.
   289  2.88  0.  0.
   290  2.89  0.  0.
   291  2.90  0.  0.
   292  2.91  0.  0.
   293  2.92  0.  0.
   294  2.93  0.  0.
   295  2.94  0.  0.
   296  2.95  0.  0.
   297  2.96  0.  0.
   298  2.97  0.  0.
   299  2.98  0.  0.
   300  2.99  0.  0.
   301  3.00  0.  0.
   302  3.01  0.  0.
   303  3.02  0.  0.
   304  3.03  0.  0.
   305  3.04  0.  0.
   306  3.05  0.  0.
   307  3.06  0.  0.
   308  3.07  0.  0.
   309  3.08  0.  0.
   310  3.09  0.  0.
   311  3.10  0.  0.
   312  3.11  0.  0.
   313  3.12  0.  0.
   314  3.13  0.  0.
   315  3.14  0.  0.
   316  3.15  0.  0.
   317  3.16  0.  0.
   318  3.17  0.  0.
   319  3.18  0.  0.
   320  3.19  0.  0.
   321  3.20  0.  0.
   322  3.21  0.  0.
   323  3.22  0.  0.
   324  3.23  0.  0.
   325  3.24  0.  0.
   326  3.25  0.  0.
   327  3.26  0.  0.
   328  3.27  0.  0.
   329  3.28  0.  0.
   330  3.29  0.  0.
   331  3.30  0.  0.
   332  3.31  0.  0.
   333  3.32  0.  0.
   334  3.33  0.  0.
   335  3.34  0.  0.
   336  3.35  0.  0.
   337  3.36  0.  0.
   338  3.37  0.  0.
   339  3.38  0.  0.
   340  3.39  0.  0.
   341  3.40  0.  0.
   342  3.41  0.  0.
   343  3.42  0.  0.
   344  3.43  0.  0.
   345  3.44  0.  0.
   346  3.45  0.  0.
   347  3.46  0.  0.
   348  3.47  0.  0.
   349  3.48  0.  0.
   350  3.49  0.  0.
   351  3.50  0.  0.
   352  3.51  0.  0.
   353  3.52  0.  0.
   354  3.53  0.  0.
   355  3.54  0.  0.
   356  3.55  0.  0.
   357  3.56  0.  0.
   358  3.57  0.  0.
   359  3.58  0.  0.
   360  3.59  0.  0.
   361  3.60  0.  0.
   362  3.61  0.  0.
   363  3.62  0.  0.
   364  3.63  0.  0.
   365  3.64  0.  0.
   366  3.65  0.  0.
   367  3.66  0.  0.
   368  3.67  0.  0.
   369  3.68  0.  0.
   370  3.69  0.  0.
   371  3.70  0.  0.
   372  3.71  0.  0.
   373  3.72  0.  0.
   374  3.73  0.  0.
   375  3.74  0.  0.
   376  3.75  0.  0.
   377  3.76  0.  0.
   378  3.77  0.  0.
   379  3.78  0.  0.
   380  3.79  0.  0.
   381  3.80  0.  0.
   382  3.81  0.  0.
   383  3.82  0.  0.
   384  3.83  0.  0.
   385  3.84  0.  0.
   386  3.85  0.  0.
   387  3.86  0.  0.
   388  3.87  0.  0.
   389  3.88  0.  0.
   390  3.89  0.  0.
   391  3.90  0.  0.
   392  3.91  0.  0.
   393  3.92  0.  0.
   394  3.93  0.  0.
   395  3.94  0.  0.
   396  3.95  0.  0.
   397  3.96  0.  0.
   398  3.97  0.  0.
   399  3.98  0.  0.
   400  3.99  0.  0.
   401  4.00  0.  0.
   402  4.01  0.  0.
   403  4.02  0.  0.
   404  4.03  0.  0.
   405  4.04  0.  0.
   406  4.05  0.  0.
   407  4.06  0.  0.
   408  4.07  0.  0.
   409  4.08  0.  0.
   410  4.09  0.  0.
   411  4.10  0.  0.
   412  4.11  0.  0.
   413  4.12  0.  0.
   414  4.13  0.  0.
   415  4.14  0.  0.
   416  4.15  0.  0.
   417  4.16  0.  0.
   418  4.17  0.  0.
   419  4.18  0.  0.
   420  4.19  0.  0.
   421  4.20  0.  0.
   422  4.21  0.  0.
   423  4.22  0.  0.
   424  4.23  0.  0.
   425  4.24  0.  0.
   426  4.25  0.  0.
   427  4.26  0.  0.
   428  4.27  0.  0.
   429  4.28  0.  0.
   430  4.29  0.  0.
   431  4.30  0.  0.
   432  4.31  0.  0.
   433  4.32  0.  0.
   434  4.33  0.  0.
   435  4.34  0.  0.
   436  4.35  0.  0.
   437  4.36  0.  0.
   438  4.37  0.  0.
   439  4.38  0.  0.
   440  4.39  0.  0.
   441  4.40  0.  0.
   442  4.41  0.  0.
   443  4.42  0.  0.
   444  4.43  0.  0.
   445  4.44  0.  0.
   446  4.45  0.  0.
   447  4.46  0.  0.
   448  4.47  0.  0.
   449  4.48  0.  0.
   450  4.49  0.  0.
   451  4.50  0.  0.
   452  4.51  0.  0.
   453  4.52  0.  0.
   454  4.53  0.  0.
   455  4.54  0.  0.
   456  4.55  0.  0.
   457  4.56  0.  0.
   458  4.57  0.  0.
   459  4.58  0.  0.
   460  4.59  0.  0.
   461  4.60  0.  0.
   462  4.61  0.  0.
   463  4.62  0.  0.
   464  4.63  0.  0.
   465  4.64  0.  0.
   466  4.65  0.  0.
   467  4.66  0.  0.
   468  4.67  0.  0.
   469  4.68  0.  0.
   470  4.69  0.  0.
   471  4.70  0.  0.
   472  4.71  0.  0.
   473  4.72  0.  0.
   474  4.73  0.  0.
   475  4.74  0.  0.
   476  4.75  0.  0.
   477  4.76  0.  0.
   478  4.77  0.  0.
   479  4.78  0.  0.
   480  4.79  0.  0.
   481  4.80  0.  0.
   482  4.81  0.  0.
   483  4.82  0.  0.
   484  4.83  0.  0.
   485  4.84  0.  0.
   486  4.85  0.  0.
   487  4.86  0.  0.
   488  4.87  0.  0.
   489  4.88  0.  0.
   490  4.89  0.  0.
   491  4.90  0.  0.
   492  4.91  0.  0.
   493  4.92  0.  0.
   494  4.93  0.  0.
   495  4.94  0.  0.
   496  4.95  0.  0.
   497  4.96  0.  0.
   498  4.97  0.  0.
   499  4.98  0.  0.
   500  4.99  0.  0.
   501  5.00  0.  0.
   502  5.01  0.  0.
   503  5.02  0.  0.
   504  5.03  0.  0.
   505  5.04  0.  0.
   506  5.05  0.  0.
   507  5.06  0.  0.
   508  5.07  0.  0.
   509  5.08  0.  0.
   510  5.09  0.  0.
   511  5.10  0.  0.
   512  5.11  0.  0.
   513  5.12  0.  0.
   514  5.13  0.  0.
   515  5.14  0.  0.
   516  5.15  0.  0.
   517  5.16  0.  0.
   518  5.17  0.  0.
   519  5.18  0.  0.
   520  5.19  0.  0.
   521  5.20  0.  0.
   522  5.21  0.  0.
   523  5.22  0.  0.
   524  5.23  0.  0.
   525  5.24  0.  0.
   526  5.25  0.  0.
   527  5.26  0.  0.
   528  5.27  0.  0.
   529  5.28  0.  0.
   530  5.29  0.  0.
   531  5.30  0.  0.
   532  5.31  0.  0.
   533  5.32  0.  0.
   534  5.33  0.  0.
   535  5.34  0.  0.
   536  5.35  0.  0.
   537  5.36  0.  0.
   538  5.37  0.  0.
   539  5.38  0.  0.
   540  5.39  0.  0.
   541  5.40  0.  0.
   542  5.41  0.  0.
   543  5.42  0.  0.
   544  5.43  0.  0.
   545  5.44  0.  0.
   546  5.45  0.  0.
   547  5.46  0.  0.
   548  5.47  0.  0.
   549  5.48  0.  0.
   550  5.49  0.  0.
   551  5.50  0.  0.
   552  5.51  0.  0.
   553  5.52  0.  0.
   554  5.53  0.  0.
   555  5.54  0.  0.
   556  5.55  0.  0.
   557  5.56  0.  0.
   558  5.57  0.  0.
   559  5.58  0.  0.
   560  5.59  0.  0.
   561  5.60  0.  0.
   562  5.61  0.  0.
   563  5.62  0.  0.
   564  5.63  0.  0.
   565  5.64  0.  0.
   566  5.65  0.  0.
   567  5.66  0.  0.
   568  5.67  0.  0.
   569  5.68  0.  0.
   570  5.69  0.  0.
   571  5.70  0.  0.
   572  5.71  0.  0.
   573  5.72  0.  0.
   574  5.73  0.  0.
   575  5.74  0.  0.
   576  5.75  0.  0.
   577  5.76  0.  0.
   578  5.77  0.  0.
   579  5.78  0.  0.
   580  5.79  0.  0.
   581  5.80  0.  0.
   582  5.81  0.  0.
   583  5.82  0.  0.
   584  5.83  0.  0.
   585  5.84  0.  0.
   586  5.85  0.  0.
   587  5.86  0.  0.
   588  5.87  0.  0.
   589  5.88  0.  0.
   590  5.89  0.  0.
   591  5.90  0.  0.
   592  5.91  0.  0.
   593  5.92  0.  0.
   594  5.93  0.  0.
   595  5.94  0.  0.
   596  5.95  0.  0.
   597  5.96  0.  0.
   598  5.97  0.  0.
   599  5.98  0.  0.
   600  5.99  0.  0.
   1                        -1.7477348866192E+00 -4.1756644103143E-01
     1  0.0000000000000E+00  3.7474113256941E-09 -5.5786472386021E-09
     2  1.0000000000000E-02  1.6768849703513E-03 -8.5575776217040E-04
     3  2.0000000000000E-02  6.6975614138538E-03 -3.4105783710266E-03
     4  3.0000000000000E-02  1.5032214953645E-02 -7.6272896937345E-03
     5  4.0000000000000E-02  2.6631556190859E-02 -1.3444554603419E-02
     6  5.0000000000000E-02  4.1427414924262E-02 -2.0777784342358E-02
     7  6.0000000000000E-02  5.9333556953913E-02 -2.9520394878672E-02
     8  7.0000000000000E-02  8.0246708699534E-02 -3.9545384380428E-02
     9  8.0000000000000E-02  1.0404777111686E-01 -5.0707204352374E-02
    10  9.0000000000000E-02  1.3060320098992E-01 -6.2843891888817E-02
    11  1.0000000000000E-01  1.5976653467790E-01 -7.5779425982306E-02
    12  1.1000000000000E-01  1.9138002686059E-01 -8.9326266976409E-02
    13  1.2000000000000E-01  2.2527637480186E-01 -1.0328803512648E-01
    14  1.3000000000000E-01  2.6128049717941E-01 -1.1746228189842E-01
    15  1.4000000000000E-01  2.9921133563791E-01 -1.3164330613073E-01
    16  1.5000000000000E-01  3.3888364693433E-01 -1.4562496654388E-01
    17  1.6000000000000E-01  3.8010975386506E-01 -1.5920344231339E-01
    18  1.7000000000000E-01  4.2270122409494E-01 -1.7217989453315E-01
    19  1.8000000000000E-01  4.6647044753370E-01 -1.8436298336271E-01
    20  1.9000000000000E-01  5.1123208500296E-01 -1.9557119844927E-01
    21  2.0000000000000E-01  5.5680436357300E-01 -2.0563496379421E-01
    22  2.1000000000000E-01  6.0301019707711E-01 -2.1439848253439E-01
    23  2.2000000000000E-01  6.4967811388111E-01 -2.2172129205991E-01
    24  2.3000000000000E-01  6.9664297793263E-01 -2.2747950540334E-01
    25  2.4000000000000E-01  7.4374649337022E-01 -2.3156672081844E-01
    26  2.5000000000000E-01  7.9083748746073E-01 -2.3389458781201E-01
    27  2.6000000000000E-01  8.3777197127204E-01 -2.3439302448804E-01
    28  2.7000000000000E-01  8.8441298219409E-01 -2.3301008779290E-01
    29  2.8000000000000E-01  9.3063021710526E-01 -2.2971150499011E-01
    30  2.9000000000000E-01  9.7629946955678E-01 -2.2447988132149E-01
    31  3.0000000000000E-01  1.0213018887263E+00 -2.1731360520590E-01
    32  3.1000000000000E-01  1.0655230819892E+00 -2.0822547836716E-01
    33  3.2000000000000E-01  1.1088520866893E+00 -1.9724110385470E-01
    34  3.3000000000000E-01  1.1511802399869E+00 -1.8439706991623E-01
    35  3.4000000000000E-01  1.1923999784442E+00 -1.6973897200259E-01
    36  3.5000000000000E-01  1.2324036012293E+00 -1.5331931874186E-01
    37  3.6000000000000E-01  1.2710820324062E+00 -1.3519537043881E-01
    38  3.7000000000000E-01  1.3083236187118E+00 -1.1542696047326E-01
    39  3.8000000000000E-01  1.3440129994521E+00 -9.4074350841530E-02
    40  3.9000000000000E-01  1.3780300846679E+00 -7.1196172978878E-02
    41  4.0000000000000E-01  1.4102491765230E+00 -4.6847503903106E-02
    42  4.1000000000000E-01  1.4405382669484E+00 -2.1078125636084E-02
    43  4.2000000000000E-01  1.4687585419725E+00  6.0689871873618E-03
    44  4.3000000000000E-01  1.4947641198927E+00  3.4558910586522E-02
    45  4.4000000000000E-01  1.5184020465603E+00  6.4365709280764E-02
    46  4.5000000000000E-01  1.5395125666017E+00  9.5473039051485E-02
    47  4.6000000000000E-01  1.5579296844590E+00  1.2787438929730E-01
    48  4.7000000000000E-01  1.5734820237851E+00  1.6157294860220E-01
    49  4.8000000000000E-01  1.5859939880428E+00  1.9658108356728E-01
    50  4.9000000000000E-01  1.5952872192532E+00  2.3291942894752E-01
    51  5.0000000000000E-01  1.6011823457913E+00  2.7061559515520E-01
    52  5.1000000000000E-01  1.6035010040654E+00  3.0970250729520E-01
    53  5.2000000000000E-01  1.6020681129264E+00  3.5021639794470E-01
    54  5.3000000000000E-01  1.5967143738650E+00  3.9219448373002E-01
    55  5.4000000000000E-01  1.5872789645552E+00  4.3567236324486E-01
    56  5.5000000000000E-01  1.5736123882154E+00  4.8068118085330E-01
    57  5.6000000000000E-01  1.5555794366647E+00  5.2724460729406E-01
    58  5.7000000000000E-01  1.5330622209616E+00  5.7537569362306E-01
    59  5.8000000000000E-01  1.5059632201960E+00  6.2507365978463E-01
    60  5.9000000000000E-01  1.4742082964429E+00  6.7632068288654E-01
    61  6.0000000000000E-01  1.4377496221395E+00  7.2907875298551E-01
    62  6.1000000000000E-01  1.3965684652630E+00  7.8328666579868E-01
    63  6.2000000000000E-01  1.3506777776990E+00  8.3885722219483E-01
    64  6.3000000000000E-01  1.3001245331213E+00  8.9567470355755E-01
    65  6.4000000000000E-01  1.2449917625535E+00  9.5359269014259E-01
    66  6.5000000000000E-01  1.1854002385406E+00  1.0124322863883E+00
    67  6.6000000000000E-01  1.1215097624960E+00  1.0719808128155E+00
    68  6.7000000000000E-01  1.0535200142557E+00  1.1319910187296E+00
    69  6.8000000000000E-01  9.8167092811772E-01  1.1921808634878E+00
    70  6.9000000000000E-01  9.0624256558128E-01  1.2522339067219E+00
    71  7.0000000000000E-01  8.2755446154805E-01  1.3118003397181E+00
    72  7.1000000000000E-01  7.4596442780410E-01  1.3704986812930E+00
    73  7.2000000000000E-01  6.6186680504811E-01  1.4279181521063E+00
    74  7.3000000000000E-01  5.7569016245442E-01  1.4836217315809E+00
    75  7.4000000000000E-01  4.8789445162620E-01  1.5371498916275E+00
    76  7.5000000000000E-01  3.9896762967305E-01  1.5880249913632E+00
    77  7.6000000000000E-01  3.0942177390183E-01  1.6357563071582E+00
    78  7.7000000000000E-01  2.1978871810467E-01  1.6798456628107E+00
    79  7.8000000000000E-01  1.3061524752935E-01  1.7197936156245E+00
    80  7.9000000000000E-01  4.2457896195716E-02  1.7551061458014E+00
    81  8.0000000000000E-01 -4.4122603844740E-02  1.7853017890384E+00
    82  8.1000000000000E-01 -1.2856716653344E-01  1.8099191456677E+00
    83  8.2000000000000E-01 -2.1032443002460E-01  1.8285246942477E+00
    84  8.3000000000000E-01 -2.8885700664360E-01  1.8407208332989E+00
    85  8.4000000000000E-01 -3.6364783977897E-01  1.8461540719979E+00
    86  8.5000000000000E-01 -4.3420660163342E-01  1.8445232891448E+00
    87  8.6000000000000E-01 -5.0007606560444E-01  1.8355879796745E+00
    88  8.7000000000000E-01 -5.6083838804582E-01  1.8191764093960E+00
    89  8.8000000000000E-01 -6.1612123627841E-01  1.7951936015281E+00
    90  8.9000000000000E-01 -6.6560370302991E-01  1.7636290833103E+00
    91  9.0000000000000E-01 -7.0902195050305E-01  1.7245643201168E+00
    92  9.1000000000000E-01 -7.4617418600818E-01  1.6781779938725E+00
    93  9.2000000000000E-01 -7.7692076400616E-01  1.6247290858944E+00
    94  9.3000000000000E-01 -8.0118159169178E-01  1.5645338952844E+00
    95  9.4000000000000E-01 -8.1893629585484E-01  1.4979630982091E+00
    96  9.5000000000000E-01 -8.3022418565429E-01  1.4254405774714E+00
    97  9.6000000000000E-01 -8.3514355849132E-01  1.3474415262279E+00
    98  9.7000000000000E-01 -8.3385034610742E-01  1.2644898114170E+00
    99  9.8000000000000E-01 -8.2655610875773E-01  1.1771546060564E+00
   100  9.9000000000000E-01 -8.1352539391235E-01  1.0860463098973E+00
   101  1.0000000000000E+00 -7.9507248482793E-01  9.9181179008176E-01
   102  1.0100000000000E+00 -7.7155757304219E-01  8.9512898534389E-01
   103  1.0200000000000E+00 -7.4338239723175E-01  7.9670092871925E-01
   104  1.0300000000000E+00 -7.1098539879660E-01  6.9724925447617E-01
   105  1.0400000000000E+00 -6.7483645184970E-01  5.9750726485650E-01
   106  1.0500000000000E+00 -6.3543123187984E-01  4.9821264105145E-01
   107  1.0600000000000E+00 -5.9328529309948E-01  4.0009989047643E-01
   108  1.0700000000000E+00 -5.4892792927476E-01  3.0389262869866E-01
   109  1.0800000000000E+00 -5.0289589659096E-01  2.1029579921690E-01
   110  1.0900000000000E+00 -4.5572707973999E-01  1.1998793757627E-01
   111  1.1000000000000E+00 -4.0795418388853E-01  3.3613587971737E-02
   112  1.1100000000000E+00 -3.6009853544593E-01 -4.8224019507987E-02
   113  1.1200000000000E+00 -3.1266407359721E-01 -1.2496992451731E-01
   114  1.1300000000000E+00 -2.6613161237520E-01 -1.9612392186327E-01
   115  1.1400000000000E+00 -2.2095344968040E-01 -2.6124647855229E-01
   116  1.1500000000000E+00 -1.7754839509360E-01 -3.1996399094620E-01
   117  1.1600000000000E+00 -1.3629728271314E-01 -3.7197329852623E-01
   118  1.1700000000000E+00 -9.7539028551220E-02 -4.1704538026084E-01
   119  1.1800000000000E+00 -6.1567284463163E-02 -4.5502817022523E-01
   120  1.1900000000000E+00 -2.8627732140022E-02 -4.8584844095844E-01