N     ONCVPSP-4.0.1  r_core=   1.20716   1.35246
      7.0000      5.0000      230118    zatom,zion,pspd
     8       2   1     4   600     0    pspcod,pspxc,lmax,lloc,mmax,r2well
  5.99000000  4.00000000  0.00000000    rchrg fchrg qchrg
     2     2     0     0     0    nproj
     1     1           extension_switch
   0                         7.4792258504260E+00  6.5005232367074E-01
     1  0.0000000000000E+00 -1.1511294473188E-08  5.0240837157212E-08
     2  1.0000000000000E-02  9.8940855601092E-02 -7.5551235827913E-02
     3  2.0000000000000E-02  1.9742679664285E-01 -1.4996575671503E-01
     4  3.0000000000000E-02  2.9500866321890E-01 -2.2212964649041E-01
     5  4.0000000000000E-02  3.9124868052238E-01 -2.9097404676123E-01
     6  5.0000000000000E-02  4.8572584395154E-01 -3.5549634979382E-01
     7  6.0000000000000E-02  5.7804094380433E-01 -4.1477982535472E-01
     8  7.0000000000000E-02  6.6782112339430E-01 -4.6801122043720E-01
     9  8.0000000000000E-02  7.5472387593116E-01 -5.1449592104029E-01
    10  9.0000000000000E-02  8.3844039933537E-01 -5.5367032553770E-01
    11  1.0000000000000E-01  9.1869824394159E-01 -5.8511114814824E-01
    12  1.1000000000000E-01  9.9526320538913E-01 -6.0854144685159E-01
    13  1.2000000000000E-01  1.0679404334533E+00 -6.2383325086998E-01
    14  1.3000000000000E-01  1.1365747466714E+00 -6.3100674652023E-01
    15  1.4000000000000E-01  1.2010501618736E+00 -6.3022606472428E-01
    16  1.5000000000000E-01  1.2612886666521E+00 -6.2179179662808E-01
    17  1.6000000000000E-01  1.3172482809175E+00 -6.0613044353372E-01
    18  1.7000000000000E-01  1.3689204705335E+00 -5.8378108170495E-01
    19  1.8000000000000E-01  1.4163269911777E+00 -5.5537958971261E-01
    20  1.9000000000000E-01  1.4595162536599E+00 -5.2164084418131E-01
    21  2.0000000000000E-01  1.4985593126239E+00 -4.8333933765229E-01
    22  2.1000000000000E-01  1.5335455885972E+00 -4.4128870862788E-01
    23  2.2000000000000E-01  1.5645784385510E+00 -3.9632069783856E-01
    24  2.3000000000000E-01  1.5917706923647E+00 -3.4926405582940E-01
    25  2.4000000000000E-01  1.6152402718248E+00 -3.0092392486958E-01
    26  2.5000000000000E-01  1.6351060050514E+00 -2.5206220306791E-01
    27  2.6000000000000E-01  1.6514837426643E+00 -2.0337937086117E-01
    28  2.7000000000000E-01  1.6644828727490E+00 -1.5549822049794E-01
    29  2.8000000000000E-01  1.6742033200202E+00 -1.0894987881729E-01
    30  2.9000000000000E-01  1.6807331008213E+00 -6.4162453842443E-02
    31  3.0000000000000E-01  1.6841464901107E+00 -2.1452568030519E-02
    32  3.1000000000000E-01  1.6845028397723E+00  1.8980032818447E-02
    33  3.2000000000000E-01  1.6818460699008E+00  5.7054684091084E-02
    34  3.3000000000000E-01  1.6762048366029E+00  9.2808789808900E-02
    35  3.4000000000000E-01  1.6675933617973E+00  1.2639364310289E-01
    36  3.5000000000000E-01  1.6560128929540E+00  1.5806720867306E-01
    37  3.6000000000000E-01  1.6414537441325E+00  1.8818407129959E-01
    38  3.7000000000000E-01  1.6238978544797E+00  2.1718282398103E-01
    39  3.8000000000000E-01  1.6033217869140E+00  2.4557123148272E-01
    40  3.9000000000000E-01  1.5797000783842E+00  2.7390955848367E-01
    41  4.0000000000000E-01  1.5530088441224E+00  3.0279249484178E-01
    42  4.1000000000000E-01  1.5232295319287E+00  3.3283014275554E-01
    43  4.2000000000000E-01  1.4903527188711E+00  3.6462855106494E-01
    44  4.3000000000000E-01  1.4543818419231E+00  3.9877029020281E-01
    45  4.4000000000000E-01  1.4153367560103E+00  4.3579555727209E-01
    46  4.5000000000000E-01  1.3732570175996E+00  4.7618428460791E-01
    47  4.6000000000000E-01  1.3282047992135E+00  5.2033969749365E-01
    48  4.7000000000000E-01  1.2802673498769E+00  5.6857372824596E-01
    49  4.8000000000000E-01  1.2295589282245E+00  6.2109464572997E-01
    50  4.9000000000000E-01  1.1762221485117E+00  6.7799720281088E-01
    51  5.0000000000000E-01  1.1204286947023E+00  7.3925554079144E-01
    52  5.1000000000000E-01  1.0623793737662E+00  8.0471902117871E-01
    53  5.2000000000000E-01  1.0023034958888E+00  8.7411108293292E-01
    54  5.3000000000000E-01  9.4045758604114E-01  9.4703114951190E-01
    55  5.4000000000000E-01  8.7712344785831E-01  1.0229595363832E+00
    56  5.5000000000000E-01  8.1260561660973E-01  1.1012652380545E+00
    57  5.6000000000000E-01  7.4722825281634E-01  1.1812164058173E+00
    58  5.7000000000000E-01  6.8133154142355E-01  1.2619932649328E+00
    59  5.8000000000000E-01  6.1526767304783E-01  1.3427031643781E+00
    60  5.9000000000000E-01  5.4939649341104E-01  1.4223974047906E+00
    61  6.0000000000000E-01  4.8408091444466E-01  1.5000894519366E+00
    62  6.1000000000000E-01  4.1968218553063E-01  1.5747741146967E+00
    63  6.2000000000000E-01  3.5655512585783E-01  1.6454472487315E+00
    64  6.3000000000000E-01  2.9504341888592E-01  1.7111255399311E+00
    65  6.4000000000000E-01  2.3547506746412E-01  1.7708659254450E+00
    66  6.5000000000000E-01  1.7815810335280E-01  1.8237842242546E+00
    67  6.6000000000000E-01  1.2337663790263E-01  1.8690725733354E+00
    68  6.7000000000000E-01  7.1387331677657E-02  1.9060152986922E+00
    69  6.8000000000000E-01  2.2416350125451E-02  1.9340028919288E+00
    70  6.9000000000000E-01 -2.3343139693775E-02  1.9525438113583E+00
    71  7.0000000000000E-01 -6.5732889477824E-02  1.9612738806471E+00
    72  7.1000000000000E-01 -1.0463087920104E-01  1.9599631161559E+00
    73  7.2000000000000E-01 -1.3995200207688E-01  1.9485198749988E+00
    74  7.3000000000000E-01 -1.7164812549477E-01  1.9269922778226E+00
    75  7.4000000000000E-01 -1.9970754232667E-01  1.8955669218909E+00
    76  7.5000000000000E-01 -2.2415384015261E-01  1.8545649597416E+00
    77  7.6000000000000E-01 -2.4504422808191E-01  1.8044356750799E+00
    78  7.7000000000000E-01 -2.6246737167229E-01  1.7457477393887E+00
    79  7.8000000000000E-01 -2.7654079573043E-01  1.6791783788605E+00
    80  7.9000000000000E-01 -2.8740792232738E-01  1.6055007207215E+00
    81  8.0000000000000E-01 -2.9523481703962E-01  1.5255696200919E+00
    82  8.1000000000000E-01 -3.0020672014478E-01  1.4403062926455E+00
    83  8.2000000000000E-01 -3.0252444123059E-01  1.3506820941951E+00
    84  8.3000000000000E-01 -3.0240069543689E-01  1.2577017958228E+00
    85  8.4000000000000E-01 -3.0005645741997E-01  1.1623867024192E+00
    86  8.5000000000000E-01 -2.9571740522879E-01  1.0657579538196E+00
    87  8.6000000000000E-01 -2.8961052078075E-01  9.6882033163822E-01
    88  8.7000000000000E-01 -2.8196090672582E-01  8.7254687209387E-01
    89  8.8000000000000E-01 -2.7298887142853E-01  7.7786455642679E-01
    90  8.9000000000000E-01 -2.6290732483595E-01  6.8564131687257E-01
    91  9.0000000000000E-01 -2.5191951841308E-01  5.9667455863381E-01
    92  9.1000000000000E-01 -2.4021715239479E-01  5.1168135795984E-01
    93  9.2000000000000E-01 -2.2797886360957E-01  4.3129045444046E-01
    94  9.3000000000000E-01 -2.1536909734262E-01  3.5603611304228E-01
    95  9.4000000000000E-01 -2.0253735738219E-01  2.8635388934510E-01
    96  9.5000000000000E-01 -1.8961781976274E-01  2.2257829087671E-01
    97  9.6000000000000E-01 -1.7672928798277E-01  1.6494228930434E-01
    98  9.7000000000000E-01 -1.6397546080056E-01  1.1357860332240E-01
    99  9.8000000000000E-01 -1.5144547822647E-01  6.8522641045554E-02
   100  9.9000000000000E-01 -1.3921470711917E-01  2.9716964079332E-02
   101  1.0000000000000E+00 -1.2734572490534E-01 -2.9828864150031E-03
   102  1.0100000000000E+00 -1.1588945837578E-01 -2.9801378225788E-02
   103  1.0200000000000E+00 -1.0488643422940E-01 -5.1034979580809E-02
   104  1.0300000000000E+00 -9.4368098964680E-02 -6.7043348945604E-02
   105  1.0400000000000E+00 -8.4358167745509E-02 -7.8239920649123E-02
   106  1.0500000000000E+00 -7.4873964852137E-02 -8.5082081710806E-02
   107  1.0600000000000E+00 -6.5927722114891E-02 -8.8061129178782E-02
   108  1.0700000000000E+00 -5.7527806119174E-02 -8.7692187897674E-02
   109  1.0800000000000E+00 -4.9679849797327E-02 -8.4504256447406E-02
   110  1.0900000000000E+00 -4.2387769067575E-02 -7.9030534721748E-02
   111  1.1000000000000E+00 -3.5654650260778E-02 -7.1799170877460E-02
   112  1.1100000000000E+00 -2.9483499013448E-02 -6.3324548786684E-02
   113  1.1200000000000E+00 -2.3877845907275E-02 -5.4099220370321E-02
   114  1.1300000000000E+00 -1.8842208781000E-02 -4.4586568301182E-02
   115  1.1400000000000E+00 -1.4382413524917E-02 -3.5214281750581E-02
   116  1.1500000000000E+00 -1.0504794508839E-02 -2.6373435139625E-02
   117  1.1600000000000E+00 -7.2090313940449E-03 -1.8449614660227E-02
   118  1.1700000000000E+00 -4.5102021834073E-03 -1.1711862529342E-02
   119  1.1800000000000E+00 -2.4267096258862E-03 -6.3651823014770E-03
   120  1.1900000000000E+00 -9.7557806298502E-04 -2.5734733173098E-03
   121  1.2000000000000E+00 -1.7085869373170E-04 -4.5140896456288E-04
   122  1.2100000000000E+00  8.5885062218012E-06  2.2619421582215E-05
   123  1.2200000000000E+00 -1.5389619898281E-06 -4.0614245971314E-06
   124  1.23 -0.  0.
   125  1.24  0.  0.
   126  1.25  0.  0.
   127  1.26  0.  0.
   128  1.27  0.  0.
   129  1.28  0.  0.
   130  1.29  0.  0.
   131  1.30  0.  0.
   132  1.31  0.  0.
   133  1.32  0.  0.
   134  1.33  0.  0.
   135  1.34  0.  0.
   136  1.35  0.  0.
   137  1.36  0.  0.
   138  1.37  0.  0.
   139  1.38  0.  0.
   140  1.39  0.  0.
   141  1.40  0.  0.
   142  1.41  0.  0.
   143  1.42  0.  0.
   144  1.43  0.  0.
   145  1.44  0.  0.
   146  1.45  0.  0.
   147  1.46  0.  0.
   148  1.47  0.  0.
   149  1.48  0.  0.
   150  1.49  0.  0.
   151  1.50  0.  0.
   152  1.51  0.  0.
   153  1.52  0.  0.
   154  1.53  0.  0.
   155  1.54  0.  0.
   156  1.55  0.  0.
   157  1.56  0.  0.
   158  1.57  0.  0.
   159  1.58  0.  0.
   160  1.59  0.  0.
   161  1.60  0.  0.
   162  1.61  0.  0.
   163  1.62  0.  0.
   164  1.63  0.  0.
   165  1.64  0.  0.
   166  1.65  0.  0.
   167  1.66  0.  0.
   168  1.67  0.  0.
   169  1.68  0.  0.
   170  1.69  0.  0.
   171  1.70  0.  0.
   172  1.71  0.  0.
   173  1.72  0.  0.
   174  1.73  0.  0.
   175  1.74  0.  0.
   176  1.75  0.  0.
   177  1.76  0.  0.
   178  1.77  0.  0.
   179  1.78  0.  0.
   180  1.79  0.  0.
   181  1.80  0.  0.
   182  1.81  0.  0.
   183  1.82  0.  0.
   184  1.83  0.  0.
   185  1.84  0.  0.
   186  1.85  0.  0.
   187  1.86  0.  0.
   188  1.87  0.  0.
   189  1.88  0.  0.
   190  1.89  0.  0.
   191  1.90  0.  0.
   192  1.91  0.  0.
   193  1.92  0.  0.
   194  1.93  0.  0.
   195  1.94  0.  0.
   196  1.95  0.  0.
   197  1.96  0.  0.
   198  1.97  0.  0.
   199  1.98  0.  0.
   200  1.99  0.  0.
   201  2.00  0.  0.
   202  2.01  0.  0.
   203  2.02  0.  0.
   204  2.03  0.  0.
   205  2.04  0.  0.
   206  2.05  0.  0.
   207  2.06  0.  0.
   208  2.07  0.  0.
   209  2.08  0.  0.
   210  2.09  0.  0.
   211  2.10  0.  0.
   212  2.11  0.  0.
   213  2.12  0.  0.
   214  2.13  0.  0.
   215  2.14  0.  0.
   216  2.15  0.  0.
   217  2.16  0.  0.
   218  2.17  0.  0.
   219  2.18  0.  0.
   220  2.19  0.  0.
   221  2.20  0.  0.
   222  2.21  0.  0.
   223  2.22  0.  0.
   224  2.23  0.  0.
   225  2.24  0.  0.
   226  2.25  0.  0.
   227  2.26  0.  0.
   228  2.27  0.  0.
   229  2.28  0.  0.
   230  2.29  0.  0.
   231  2.30  0.  0.
   232  2.31  0.  0.
   233  2.32  0.  0.
   234  2.33  0.  0.
   235  2.34  0.  0.
   236  2.35  0.  0.
   237  2.36  0.  0.
   238  2.37  0.  0.
   239  2.38  0.  0.
   240  2.39  0.  0.
   241  2.40  0.  0.
   242  2.41  0.  0.
   243  2.42  0.  0.
   244  2.43  0.  0.
   245  2.44  0.  0.
   246  2.45  0.  0.
   247  2.46  0.  0.
   248  2.47  0.  0.
   249  2.48  0.  0.
   250  2.49  0.  0.
   251  2.50  0.  0.
   252  2.51  0.  0.
   253  2.52  0.  0.
   254  2.53  0.  0.
   255  2.54  0.  0.
   256  2.55  0.  0.
   257  2.56  0.  0.
   258  2.57  0.  0.
   259  2.58  0.  0.
   260  2.59  0.  0.
   261  2.60  0.  0.
   262  2.61  0.  0.
   263  2.62  0.  0.
   264  2.63  0.  0.
   265  2.64  0.  0.
   266  2.65  0.  0.
   267  2.66  0.  0.
   268  2.67  0.  0.
   269  2.68  0.  0.
   270  2.69  0.  0.
   271  2.70  0.  0.
   272  2.71  0.  0.
   273  2.72  0.  0.
   274  2.73  0.  0.
   275  2.74  0.  0.
   276  2.75  0.  0.
   277  2.76  0.  0.
   278  2.77  0.  0.
   279  2.78  0.  0.
   280  2.79  0.  0.
   281  2.80  0.  0.
   282  2.81  0.  0.
   283  2.82  0.  0.
   284  2.83  0.  0.
   285  2.84  0.  0.
   286  2.85  0.  0.
   287  2.86  0.  0.
   288  2.87  0.  0.
   289  2.88  0.  0.
   290  2.89  0.  0.
   291  2.90  0.  0.
   292  2.91  0.  0.
   293  2.92  0.  0.
   294  2.93  0.  0.
   295  2.94  0.  0.
   296  2.95  0.  0.
   297  2.96  0.  0.
   298  2.97  0.  0.
   299  2.98  0.  0.
   300  2.99  0.  0.
   301  3.00  0.  0.
   302  3.01  0.  0.
   303  3.02  0.  0.
   304  3.03  0.  0.
   305  3.04  0.  0.
   306  3.05  0.  0.
   307  3.06  0.  0.
   308  3.07  0.  0.
   309  3.08  0.  0.
   310  3.09  0.  0.
   311  3.10  0.  0.
   312  3.11  0.  0.
   313  3.12  0.  0.
   314  3.13  0.  0.
   315  3.14  0.  0.
   316  3.15  0.  0.
   317  3.16  0.  0.
   318  3.17  0.  0.
   319  3.18  0.  0.
   320  3.19  0.  0.
   321  3.20  0.  0.
   322  3.21  0.  0.
   323  3.22  0.  0.
   324  3.23  0.  0.
   325  3.24  0.  0.
   326  3.25  0.  0.
   327  3.26  0.  0.
   328  3.27  0.  0.
   329  3.28  0.  0.
   330  3.29  0.  0.
   331  3.30  0.  0.
   332  3.31  0.  0.
   333  3.32  0.  0.
   334  3.33  0.  0.
   335  3.34  0.  0.
   336  3.35  0.  0.
   337  3.36  0.  0.
   338  3.37  0.  0.
   339  3.38  0.  0.
   340  3.39  0.  0.
   341  3.40  0.  0.
   342  3.41  0.  0.
   343  3.42  0.  0.
   344  3.43  0.  0.
   345  3.44  0.  0.
   346  3.45  0.  0.
   347  3.46  0.  0.
   348  3.47  0.  0.
   349  3.48  0.  0.
   350  3.49  0.  0.
   351  3.50  0.  0.
   352  3.51  0.  0.
   353  3.52  0.  0.
   354  3.53  0.  0.
   355  3.54  0.  0.
   356  3.55  0.  0.
   357  3.56  0.  0.
   358  3.57  0.  0.
   359  3.58  0.  0.
   360  3.59  0.  0.
   361  3.60  0.  0.
   362  3.61  0.  0.
   363  3.62  0.  0.
   364  3.63  0.  0.
   365  3.64  0.  0.
   366  3.65  0.  0.
   367  3.66  0.  0.
   368  3.67  0.  0.
   369  3.68  0.  0.
   370  3.69  0.  0.
   371  3.70  0.  0.
   372  3.71  0.  0.
   373  3.72  0.  0.
   374  3.73  0.  0.
   375  3.74  0.  0.
   376  3.75  0.  0.
   377  3.76  0.  0.
   378  3.77  0.  0.
   379  3.78  0.  0.
   380  3.79  0.  0.
   381  3.80  0.  0.
   382  3.81  0.  0.
   383  3.82  0.  0.
   384  3.83  0.  0.
   385  3.84  0.  0.
   386  3.85  0.  0.
   387  3.86  0.  0.
   388  3.87  0.  0.
   389  3.88  0.  0.
   390  3.89  0.  0.
   391  3.90  0.  0.
   392  3.91  0.  0.
   393  3.92  0.  0.
   394  3.93  0.  0.
   395  3.94  0.  0.
   396  3.95  0.  0.
   397  3.96  0.  0.
   398  3.97  0.  0.
   399  3.98  0.  0.
   400  3.99  0.  0.
   401  4.00  0.  0.
   402  4.01  0.  0.
   403  4.02  0.  0.
   404  4.03  0.  0.
   405  4.04  0.  0.
   406  4.05  0.  0.
   407  4.06  0.  0.
   408  4.07  0.  0.
   409  4.08  0.  0.
   410  4.09  0.  0.
   411  4.10  0.  0.
   412  4.11  0.  0.
   413  4.12  0.  0.
   414  4.13  0.  0.
   415  4.14  0.  0.
   416  4.15  0.  0.
   417  4.16  0.  0.
   418  4.17  0.  0.
   419  4.18  0.  0.
   420  4.19  0.  0.
   421  4.20  0.  0.
   422  4.21  0.  0.
   423  4.22  0.  0.
   424  4.23  0.  0.
   425  4.24  0.  0.
   426  4.25  0.  0.
   427  4.26  0.  0.
   428  4.27  0.  0.
   429  4.28  0.  0.
   430  4.29  0.  0.
   431  4.30  0.  0.
   432  4.31  0.  0.
   433  4.32  0.  0.
   434  4.33  0.  0.
   435  4.34  0.  0.
   436  4.35  0.  0.
   437  4.36  0.  0.
   438  4.37  0.  0.
   439  4.38  0.  0.
   440  4.39  0.  0.
   441  4.40  0.  0.
   442  4.41  0.  0.
   443  4.42  0.  0.
   444  4.43  0.  0.
   445  4.44  0.  0.
   446  4.45  0.  0.
   447  4.46  0.  0.
   448  4.47  0.  0.
   449  4.48  0.  0.
   450  4.49  0.  0.
   451  4.50  0.  0.
   452  4.51  0.  0.
   453  4.52  0.  0.
   454  4.53  0.  0.
   455  4.54  0.  0.
   456  4.55  0.  0.
   457  4.56  0.  0.
   458  4.57  0.  0.
   459  4.58  0.  0.
   460  4.59  0.  0.
   461  4.60  0.  0.
   462  4.61  0.  0.
   463  4.62  0.  0.
   464  4.63  0.  0.
   465  4.64  0.  0.
   466  4.65  0.  0.
   467  4.66  0.  0.
   468  4.67  0.  0.
   469  4.68  0.  0.
   470  4.69  0.  0.
   471  4.70  0.  0.
   472  4.71  0.  0.
   473  4.72  0.  0.
   474  4.73  0.  0.
   475  4.74  0.  0.
   476  4.75  0.  0.
   477  4.76  0.  0.
   478  4.77  0.  0.
   479  4.78  0.  0.
   480  4.79  0.  0.
   481  4.80  0.  0.
   482  4.81  0.  0.
   483  4.82  0.  0.
   484  4.83  0.  0.
   485  4.84  0.  0.
   486  4.85  0.  0.
   487  4.86  0.  0.
   488  4.87  0.  0.
   489  4.88  0.  0.
   490  4.89  0.  0.
   491  4.90  0.  0.
   492  4.91  0.  0.
   493  4.92  0.  0.
   494  4.93  0.  0.
   495  4.94  0.  0.
   496  4.95  0.  0.
   497  4.96  0.  0.
   498  4.97  0.  0.
   499  4.98  0.  0.
   500  4.99  0.  0.
   501  5.00  0.  0.
   502  5.01  0.  0.
   503  5.02  0.  0.
   504  5.03  0.  0.
   505  5.04  0.  0.
   506  5.05  0.  0.
   507  5.06  0.  0.
   508  5.07  0.  0.
   509  5.08  0.  0.
   510  5.09  0.  0.
   511  5.10  0.  0.
   512  5.11  0.  0.
   513  5.12  0.  0.
   514  5.13  0.  0.
   515  5.14  0.  0.
   516  5.15  0.  0.
   517  5.16  0.  0.
   518  5.17  0.  0.
   519  5.18  0.  0.
   520  5.19  0.  0.
   521  5.20  0.  0.
   522  5.21  0.  0.
   523  5.22  0.  0.
   524  5.23  0.  0.
   525  5.24  0.  0.
   526  5.25  0.  0.
   527  5.26  0.  0.
   528  5.27  0.  0.
   529  5.28  0.  0.
   530  5.29  0.  0.
   531  5.30  0.  0.
   532  5.31  0.  0.
   533  5.32  0.  0.
   534  5.33  0.  0.
   535  5.34  0.  0.
   536  5.35  0.  0.
   537  5.36  0.  0.
   538  5.37  0.  0.
   539  5.38  0.  0.
   540  5.39  0.  0.
   541  5.40  0.  0.
   542  5.41  0.  0.
   543  5.42  0.  0.
   544  5.43  0.  0.
   545  5.44  0.  0.
   546  5.45  0.  0.
   547  5.46  0.  0.
   548  5.47  0.  0.
   549  5.48  0.  0.
   550  5.49  0.  0.
   551  5.50  0.  0.
   552  5.51  0.  0.
   553  5.52  0.  0.
   554  5.53  0.  0.
   555  5.54  0.  0.
   556  5.55  0.  0.
   557  5.56  0.  0.
   558  5.57  0.  0.
   559  5.58  0.  0.
   560  5.59  0.  0.
   561  5.60  0.  0.
   562  5.61  0.  0.
   563  5.62  0.  0.
   564  5.63  0.  0.
   565  5.64  0.  0.
   566  5.65  0.  0.
   567  5.66  0.  0.
   568  5.67  0.  0.
   569  5.68  0.  0.
   570  5.69  0.  0.
   571  5.70  0.  0.
   572  5.71  0.  0.
   573  5.72  0.  0.
   574  5.73  0.  0.
   575  5.74  0.  0.
   576  5.75  0.  0.
   577  5.76  0.  0.
   578  5.77  0.  0.
   579  5.78  0.  0.
   580  5.79  0.  0.
   581  5.80  0.  0.
   582  5.81  0.  0.
   583  5.82  0.  0.
   584  5.83  0.  0.
   585  5.84  0.  0.
   586  5.85  0.  0.
   587  5.86  0.  0.
   588  5.87  0.  0.
   589  5.88  0.  0.
   590  5.89  0.  0.
   591  5.90  0.  0.
   592  5.91  0.  0.
   593  5.92  0.  0.
   594  5.93  0.  0.
   595  5.94  0.  0.
   596  5.95  0.  0.
   597  5.96  0.  0.
   598  5.97  0.  0.
   599  5.98  0.  0.
   600  5.99  0.  0.
   1                        -4.3386463812085E+00 -9.9124090393407E-01
     1  0.0000000000000E+00 -6.5187250875010E-09  1.2076805541716E-08
     2  1.0000000000000E-02  2.1745339810373E-03 -9.9817547443956E-04
     3  2.0000000000000E-02  8.6896725547784E-03 -3.9862542869542E-03
     4  3.0000000000000E-02  1.9519953092934E-02 -8.9447500975047E-03
     5  4.0000000000000E-02  3.4622700567672E-02 -1.5840715681211E-02
     6  5.0000000000000E-02  5.3937686900214E-02 -2.4627066924749E-02
     7  6.0000000000000E-02  7.7386684149987E-02 -3.5241693307439E-02
     8  7.0000000000000E-02  1.0487294040657E-01 -4.7606409265297E-02
     9  8.0000000000000E-02  1.3628061376536E-01 -6.1625812913091E-02
    10  9.0000000000000E-02  1.7147420506404E-01 -7.7186128230007E-02
    11  1.0000000000000E-01  2.1029803393615E-01 -9.4154113617459E-02
    12  1.1000000000000E-01  2.5257580505128E-01 -1.1237612342523E-01
    13  1.2000000000000E-01  2.9811031205602E-01 -1.3167740942316E-01
    14  1.3000000000000E-01  3.4668332565507E-01 -1.5186174618962E-01
    15  1.4000000000000E-01  3.9805570948208E-01 -1.7271145802247E-01
    16  1.5000000000000E-01  4.5196780296025E-01 -1.9398791539340E-01
    17  1.6000000000000E-01  5.0814010435364E-01 -2.1543255640854E-01
    18  1.7000000000000E-01  5.6627427982024E-01 -2.3676847355679E-01
    19  1.8000000000000E-01  6.2605451570123E-01 -2.5770258866230E-01
    20  1.9000000000000E-01  6.8714922176248E-01 -2.7792841992909E-01
    21  2.0000000000000E-01  7.4921308292027E-01 -2.9712942485711E-01
    22  2.1000000000000E-01  8.1188944643629E-01 -3.1498288225384E-01
    23  2.2000000000000E-01  8.7481302097546E-01 -3.3116425622198E-01
    24  2.3000000000000E-01  9.3761285360980E-01 -3.4535196554286E-01
    25  2.4000000000000E-01  9.9991554114466E-01 -3.5723246395330E-01
    26  2.5000000000000E-01  1.0613486233533E+00 -3.6650552105821E-01
    27  2.6000000000000E-01  1.1215440981190E+00 -3.7288958060545E-01
    28  2.7000000000000E-01  1.1801419923634E+00 -3.7612706307954E-01
    29  2.8000000000000E-01  1.2367939182032E+00 -3.7598947346432E-01
    30  2.9000000000000E-01  1.2911665412060E+00 -3.7228217289888E-01
    31  3.0000000000000E-01  1.3429448870272E+00 -3.6484867501227E-01
    32  3.1000000000000E-01  1.3918354141813E+00 -3.5357433405326E-01
    33  3.2000000000000E-01  1.4375687842380E+00 -3.3838930249034E-01
    34  3.3000000000000E-01  1.4799022662829E+00 -3.1927065037439E-01
    35  3.4000000000000E-01  1.5186217199526E+00 -2.9624355713581E-01
    36  3.5000000000000E-01  1.5535431105520E+00 -2.6938150821430E-01
    37  3.6000000000000E-01  1.5845135204944E+00 -2.3880545346749E-01
    38  3.7000000000000E-01  1.6114116332873E+00 -2.0468191104936E-01
    39  3.8000000000000E-01  1.6341476792147E+00 -1.6722002868679E-01
    40  3.9000000000000E-01  1.6526628453998E+00 -1.2666764324238E-01
    41  4.0000000000000E-01  1.6669281666947E+00 -8.3306408323206E-02
    42  4.1000000000000E-01  1.6769429274684E+00 -3.7446087644781E-02
    43  4.2000000000000E-01  1.6827326174466E+00  1.0581861941141E-02
    44  4.3000000000000E-01  1.6843464969349E+00  6.0431270200659E-02
    45  4.4000000000000E-01  1.6818548376603E+00  1.1174862816168E-01
    46  4.5000000000000E-01  1.6753459147637E+00  1.6418067340380E-01
    47  4.6000000000000E-01  1.6649228328711E+00  2.1738198997478E-01
    48  4.7000000000000E-01  1.6507002744240E+00  2.7102242018648E-01
    49  4.8000000000000E-01  1.6328012613509E+00  3.2479408421272E-01
    50  4.9000000000000E-01  1.6113540215954E+00  3.7841780768073E-01
    51  5.0000000000000E-01  1.5864890499072E+00  4.3164876737484E-01
    52  5.1000000000000E-01  1.5583364476524E+00  4.8428118065132E-01
    53  5.2000000000000E-01  1.5270236192866E+00  5.3615188494430E-01
    54  5.3000000000000E-01  1.4926733936993E+00  5.8714267940840E-01
    55  5.4000000000000E-01  1.4554026270862E+00  6.3718133074365E-01
    56  5.5000000000000E-01  1.4153213306207E+00  6.8624117888670E-01
    57  5.6000000000000E-01  1.3725323512903E+00  7.3433931472490E-01
    58  5.7000000000000E-01  1.3271316182336E+00  7.8153334038555E-01
    59  5.8000000000000E-01  1.2792089501581E+00  8.2791676198746E-01
    60  5.9000000000000E-01  1.2288494023983E+00  8.7361310398098E-01
    61  6.0000000000000E-01  1.1761351153364E+00  9.1876887227908E-01
    62  6.1000000000000E-01  1.1211476097370E+00  9.6354552924248E-01
    63  6.2000000000000E-01  1.0639704594845E+00  1.0081106761919E+00
    64  6.3000000000000E-01  1.0046922587138E+00  1.0526286675185E+00
    65  6.4000000000000E-01  9.4340978878421E-01  1.0972509037624E+00
    66  6.5000000000000E-01  8.8023128133722E-01  1.1421060684634E+00
    67  6.6000000000000E-01  8.1527966710156E-01  1.1872905845277E+00
    68  6.7000000000000E-01  7.4869569641092E-01  1.2328595698129E+00
    69  6.8000000000000E-01  6.8064081675449E-01  1.2788185683195E+00
    70  6.9000000000000E-01  6.1129969518051E-01  1.3251163226562E+00
    71  7.0000000000000E-01  5.4088227903218E-01  1.3716388353987E+00
    72  7.1000000000000E-01  4.6962529724300E-01  1.4182049418481E+00
    73  7.2000000000000E-01  3.9779311610034E-01  1.4645635849656E+00
    74  7.3000000000000E-01  3.2567787776469E-01  1.5103929455696E+00
    75  7.4000000000000E-01  2.5359886659922E-01  1.5553015380204E+00
    76  7.5000000000000E-01  1.8190106713435E-01  1.5988313345675E+00
    77  7.6000000000000E-01  1.1095289782436E-01  1.6404629313822E+00
    78  7.7000000000000E-01  4.1143126155584E-02  1.6796227172515E+00
    79  7.8000000000000E-01 -2.7123007396691E-02  1.7156919532423E+00
    80  7.9000000000000E-01 -9.3428407147198E-02  1.7480176196983E+00
    81  8.0000000000000E-01 -1.5734941097177E-01  1.7759248370281E+00
    82  8.1000000000000E-01 -2.1846165915374E-01  1.7987306202176E+00
    83  8.2000000000000E-01 -2.7634643391838E-01  1.8157586851080E+00
    84  8.3000000000000E-01 -3.3059734401737E-01  1.8263549883951E+00
    85  8.4000000000000E-01 -3.8082721516258E-01  1.8299036540982E+00
    86  8.5000000000000E-01 -4.2667503664454E-01  1.8258429177961E+00
    87  8.6000000000000E-01 -4.6781280744565E-01  1.8136807069898E+00
    88  8.7000000000000E-01 -5.0395212183044E-01  1.7930094720392E+00
    89  8.8000000000000E-01 -5.3485033493512E-01  1.7635198875644E+00
    90  8.9000000000000E-01 -5.6031615336260E-01  1.7250130590774E+00
    91  9.0000000000000E-01 -5.8021450419367E-01  1.6774108937932E+00
    92  9.1000000000000E-01 -5.9447054803082E-01  1.6207643276608E+00
    93  9.2000000000000E-01 -6.0307271747564E-01  1.5552591420639E+00
    94  9.3000000000000E-01 -6.0607468149446E-01  1.4812191525396E+00
    95  9.4000000000000E-01 -6.0359615804802E-01  1.3991066072197E+00
    96  9.5000000000000E-01 -5.9582252166973E-01  1.3095196933200E+00
    97  9.6000000000000E-01 -5.8300317882897E-01  1.2131871145183E+00
    98  9.7000000000000E-01 -5.6544871130885E-01  1.1109597690108E+00
    99  9.8000000000000E-01 -5.4352681581275E-01  1.0037996258266E+00
   100  9.9000000000000E-01 -5.1765709594112E-01  8.9276596404863E-01
   101  1.0000000000000E+00 -4.8830478985074E-01  7.7899920425808E-01
   102  1.0100000000000E+00 -4.5597354266479E-01  6.6370262222488E-01
   103  1.0200000000000E+00 -4.2119735640376E-01  5.4812229009106E-01
   104  1.0300000000000E+00 -3.8453187124844E-01  4.3352563862197E-01
   105  1.0400000000000E+00 -3.4654514976530E-01  3.2117907422351E-01
   106  1.0500000000000E+00 -3.0780814987301E-01  2.1232511531690E-01
   107  1.0600000000000E+00 -2.6888508239269E-01  1.0815953338485E-01
   108  1.0700000000000E+00 -2.3032385470832E-01  9.8089939196041E-03
   109  1.0800000000000E+00 -1.9264680318363E-01 -8.1690308779496E-02
   110  1.0900000000000E+00 -1.5634191342896E-01 -1.6541254166803E-01
   111  1.1000000000000E+00 -1.2185471934506E-01 -2.4056019041533E-01
   112  1.1100000000000E+00 -8.9581059161542E-02 -3.0647966156277E-01
   113  1.1200000000000E+00 -5.9860849805306E-02 -3.6267415140886E-01
   114  1.1300000000000E+00 -3.2973020028123E-02 -4.0881345794593E-01
   115  1.1400000000000E+00 -9.1317185413777E-03 -4.4474047413466E-01
   116  1.1500000000000E+00  1.1516113910342E-02 -4.7047417009253E-01
   117  1.1600000000000E+00  2.8891748958246E-02 -4.8620894564053E-01
   118  1.1700000000000E+00  4.2984223187186E-02 -4.9231031281382E-01
   119  1.1800000000000E+00  5.3848442457172E-02 -4.8930694720869E-01
   120  1.1900000000000E+00  6.1601873769232E-02 -4.7787922665934E-01
   121  1.2000000000000E+00  6.6419892649486E-02 -4.5884445553499E-01
   122  1.2100000000000E+00  6.8529880550533E-02 -4.3313903417671E-01
   123  1.2200000000000E+00  6.8204556249023E-02 -4.0179913253087E-01
   124  1.2300000000000E+00  6.5755791025257E-02 -3.6594389383143E-01
   125  1.2400000000000E+00  6.1527116108107E-02 -3.2675476101349E-01
   126  1.2500000000000E+00  5.5884776200432E-02 -2.8545045094363E-01
   127  1.2600000000000E+00  4.9208380177074E-02 -2.4326107965730E-01
   128  1.2700000000000E+00  4.1881377076399E-02 -2.0140202816664E-01
   129  1.2800000000000E+00  3.4281560272820E-02 -1.6104809062121E-01
   130  1.2900000000000E+00  2.6772282803066E-02 -1.2330923420822E-01
   131  1.3000000000000E+00  1.9695040621798E-02 -8.9209428364210E-02
   132  1.3100000000000E+00  1.3357166026672E-02 -5.9657788264262E-02
   133  1.3200000000000E+00  8.0264257636012E-03 -3.5432040448797E-02
   134  1.3300000000000E+00  3.9260099133758E-03 -1.7165768768903E-02
   135  1.3400000000000E+00  1.2194714119448E-03 -5.2915510526671E-03
   136  1.3500000000000E+00  7.2735904080011E-05 -3.1358438782299E-04
   137  1.3600000000000E+00 -3.8030302111685E-06  1.6342774952428E-05
   138  1.3700000000000E+00 -7.1507544391986E-07  3.0937024614172E-06
   139  1.38  0. -0.
   140  1.39  0.  0.
   141  1.40  0.  0.
   142  1.41  0.  0.
   143  1.42  0.  0.
   144  1.43  0.  0.
   145  1.44  0.  0.
   146  1.45  0.  0.
   147  1.46  0.  0.
   148  1.47  0.  0.
   149  1.48  0.  0.
   150  1.49  0.  0.
   151  1.50  0.  0.
   152  1.51  0.  0.
   153  1.52  0.  0.
   154  1.53  0.  0.
   155  1.54  0.  0.
   156  1.55  0.  0.
   157  1.56  0.  0.
   158  1.57  0.  0.
   159  1.58  0.  0.
   160  1.59  0.  0.
   161  1.60  0.  0.
   162  1.61  0.  0.
   163  1.62  0.  0.
   164  1.63  0.  0.
   165  1.64  0.  0.
   166  1.65  0.  0.
   167  1.66  0.  0.
   168  1.67  0.  0.
   169  1.68  0.  0.
   170  1.69  0.  0.
   171  1.70  0.  0.
   172  1.71  0.  0.
   173  1.72  0.  0.
   174  1.73  0.  0.
   175  1.74  0.  0.
   176  1.75  0.  0.
   177  1.76  0.  0.
   178  1.77  0.  0.
   179  1.78  0.  0.
   180  1.79  0.  0.
   181  1.80  0.  0.
   182  1.81  0.  0.
   183  1.82  0.  0.
   184  1.83  0.  0.
   185  1.84  0.  0.
   186  1.85  0.  0.
   187  1.86  0.  0.
   188  1.87  0.  0.
   189  1.88  0.  0.
   190  1.89  0.  0.
   191  1.90  0.  0.
   192  1.91  0.  0.
   193  1.92  0.  0.
   194  1.93  0.  0.
   195  1.94  0.  0.
   196  1.95  0.  0.
   197  1.96  0.  0.