O     ONCVPSP-4.0.1  r_core=   1.35246   1.45312   1.25127
      8.0000      6.0000      230118    zatom,zion,pspd
     8       2   2     4   600     0    pspcod,pspxc,lmax,lloc,mmax,r2well
  5.99000000  4.00000000  0.00000000    rchrg fchrg qchrg
     2     2     1     0     0    nproj
     1     1           extension_switch
   0                         5.9120824693290E+00  7.7971245512971E-01
     1  0.0000000000000E+00  2.6251684159817E-09 -5.7978531975422E-09
     2  1.0000000000000E-02  9.0839786773527E-02 -2.6168352926675E-02
     3  2.0000000000000E-02  1.8143003010293E-01 -5.2136712434695E-02
     4  3.0000000000000E-02  2.7152139111945E-01 -7.7704856169192E-02
     5  4.0000000000000E-02  3.6086496122735E-01 -1.0267214982313E-01
     6  5.0000000000000E-02  4.4921252934319E-01 -1.2683745440556E-01
     7  6.0000000000000E-02  5.3631690970842E-01 -1.4999916508868E-01
     8  7.0000000000000E-02  6.2193234727374E-01 -1.7195541843203E-01
     9  8.0000000000000E-02  7.0581501502785E-01 -1.9250449898422E-01
    10  9.0000000000000E-02  7.8772361449892E-01 -2.1144546932596E-01
    11  1.0000000000000E-01  8.6742008707711E-01 -2.2857903973856E-01
    12  1.1000000000000E-01  9.4467043989168E-01 -2.4370868508143E-01
    13  1.2000000000000E-01  1.0192456858323E+00 -2.5664200738612E-01
    14  1.3000000000000E-01  1.0909228930467E+00 -2.6719233338305E-01
    15  1.4000000000000E-01  1.1594863349954E+00 -2.7518052693860E-01
    16  1.5000000000000E-01  1.2247287280165E+00 -2.8043698746615E-01
    17  1.6000000000000E-01  1.2864525394698E+00 -2.8280379704878E-01
    18  1.7000000000000E-01  1.3444713460022E+00 -2.8213697152709E-01
    19  1.8000000000000E-01  1.3986112184046E+00 -2.7830876439482E-01
    20  1.9000000000000E-01  1.4487121070214E+00 -2.7120996721588E-01
    21  2.0000000000000E-01  1.4946291997875E+00 -2.6075214660411E-01
    22  2.1000000000000E-01  1.5362342237917E+00 -2.4686975573159E-01
    23  2.2000000000000E-01  1.5734166608280E+00 -2.2952205795013E-01
    24  2.3000000000000E-01  1.6060848477376E+00 -2.0869480148100E-01
    25  2.4000000000000E-01  1.6341669334724E+00 -1.8440158725634E-01
    26  2.5000000000000E-01  1.6576116667045E+00 -1.5668487684804E-01
    27  2.6000000000000E-01  1.6763889904512E+00 -1.2561659390946E-01
    28  2.7000000000000E-01  1.6904904235135E+00 -9.1298280556175E-02
    29  2.8000000000000E-01  1.6999292124780E+00 -5.3860779450350E-02
    30  2.9000000000000E-01  1.7047402425214E+00 -1.3463422822418E-02
    31  3.0000000000000E-01  1.7049797001724E+00  2.9707278982911E-02
    32  3.1000000000000E-01  1.7007244864262E+00  7.5439444881756E-02
    33  3.2000000000000E-01  1.6920713840340E+00  1.2349810950652E-01
    34  3.3000000000000E-01  1.6791359882823E+00  1.7362795960429E-01
    35  3.4000000000000E-01  1.6620514159912E+00  2.2555647924961E-01
    36  3.5000000000000E-01  1.6409668126638E+00  2.7899745137595E-01
    37  3.6000000000000E-01  1.6160456825763E+00  3.3365475269016E-01
    38  3.7000000000000E-01  1.5874640709797E+00  3.8922636981801E-01
    39  3.8000000000000E-01  1.5554086313730E+00  4.4540855679956E-01
    40  3.9000000000000E-01  1.5200746138965E+00  5.0190004804941E-01
    41  4.0000000000000E-01  1.4816638131935E+00  5.5840623681873E-01
    42  4.1000000000000E-01  1.4403825155187E+00  6.1464322719676E-01
    43  4.2000000000000E-01  1.3964394853891E+00  6.7034166787936E-01
    44  4.3000000000000E-01  1.3500440316372E+00  7.2525027836885E-01
    45  4.4000000000000E-01  1.3014041913260E+00  7.7913898295160E-01
    46  4.5000000000000E-01  1.2507250676470E+00  8.3180157468008E-01
    47  4.6000000000000E-01  1.1982073546630E+00  8.8305784055353E-01
    48  4.7000000000000E-01  1.1440460776558E+00  9.3275508998635E-01
    49  4.8000000000000E-01  1.0884295729624E+00  9.8076904126427E-01
    50  4.9000000000000E-01  1.0315387256417E+00  1.0270040347564E+00
    51  5.0000000000000E-01  9.7354647722327E-01  1.0713925568759E+00
    52  5.1000000000000E-01  9.1461760928666E-01  1.1138940748310E+00
    53  5.2000000000000E-01  8.5490880185150E-01  1.1544931987109E+00
    54  5.3000000000000E-01  7.9456895868418E-01  1.1931972040389E+00
    55  5.4000000000000E-01  7.3373978480767E-01  1.2300329641845E+00
    56  5.5000000000000E-01  6.7255659490254E-01  1.2650433575812E+00
    57  5.6000000000000E-01  6.1114932507373E-01  1.2982832291427E+00
    58  5.7000000000000E-01  5.4964371478467E-01  1.3298149982481E+00
    59  5.8000000000000E-01  4.8816262077818E-01  1.3597040168174E+00
    60  5.9000000000000E-01  4.2682742064344E-01  1.3880137900258E+00
    61  6.0000000000000E-01  3.6575946047140E-01  1.4148011788253E+00
    62  6.1000000000000E-01  3.0508149886272E-01  1.4401117074460E+00
    63  6.2000000000000E-01  2.4491909848865E-01  1.4639751002742E+00
    64  6.3000000000000E-01  1.8540191650839E-01  1.4864011708356E+00
    65  6.4000000000000E-01  1.2666484643855E-01  1.5073761810308E+00
    66  6.5000000000000E-01  6.8848966550135E-02  1.5268597812942E+00
    67  6.6000000000000E-01  1.2102253505104E-02  1.5447826320691E+00
    68  6.7000000000000E-01 -4.3419975321677E-02  1.5610447940918E+00
    69  6.8000000000000E-01 -9.7554921641621E-02  1.5755149596679E+00
    70  6.9000000000000E-01 -1.5013249233031E-01  1.5880305796991E+00
    71  7.0000000000000E-01 -2.0097582852262E-01  1.5983989220225E+00
    72  7.1000000000000E-01 -2.4990218643225E-01  1.6063990760513E+00
    73  7.2000000000000E-01 -2.9672417012673E-01  1.6117848971794E+00
    74  7.3000000000000E-01 -3.4125130775742E-01  1.6142888624043E+00
    75  7.4000000000000E-01 -3.8329195395064E-01  1.6136267866173E+00
    76  7.5000000000000E-01 -4.2265549241013E-01  1.6095033274943E+00
    77  7.6000000000000E-01 -4.5915480446885E-01  1.6016181864042E+00
    78  7.7000000000000E-01 -4.9260896155221E-01  1.5896728937024E+00
    79  7.8000000000000E-01 -5.2284609247056E-01  1.5733780496754E+00
    80  7.9000000000000E-01 -5.4970637031932E-01  1.5524608776527E+00
    81  8.0000000000000E-01 -5.7304505869482E-01  1.5266729338165E+00
    82  8.1000000000000E-01 -5.9273555306939E-01  1.4957978093243E+00
    83  8.2000000000000E-01 -6.0867235062859E-01  1.4596586548018E+00
    84  8.3000000000000E-01 -6.2077388074240E-01  1.4181253552564E+00
    85  8.4000000000000E-01 -6.2898512858203E-01  1.3711211851370E+00
    86  8.5000000000000E-01 -6.3327998622792E-01  1.3186287786638E+00
    87  8.6000000000000E-01 -6.3366326893978E-01  1.2606952596568E+00
    88  8.7000000000000E-01 -6.3017233903430E-01  1.1974363877644E+00
    89  8.8000000000000E-01 -6.2287828596994E-01  1.1290395940666E+00
    90  8.9000000000000E-01 -6.1188661866600E-01  1.0557657982052E+00
    91  9.0000000000000E-01 -5.9733743465178E-01  9.7794992114280E-01
    92  9.1000000000000E-01 -5.7940504018827E-01  8.9600003195940E-01
    93  9.2000000000000E-01 -5.5829700584532E-01  8.1039509328114E-01
    94  9.3000000000000E-01 -5.3425265294218E-01  7.2168129749073E-01
    95  9.4000000000000E-01 -5.0754097754905E-01  6.3046701422385E-01
    96  9.5000000000000E-01 -4.7845803016323E-01  5.3741639822886E-01
    97  9.6000000000000E-01 -4.4732378047600E-01  4.4324173485339E-01
    98  9.7000000000000E-01 -4.1447850759225E-01  3.4869462762167E-01
    99  9.8000000000000E-01 -3.8027876641013E-01  2.5455615797584E-01
   100  9.9000000000000E-01 -3.4509299039090E-01  1.6162617072735E-01
   101  1.0000000000000E+00 -3.0929679942129E-01  7.0711859538908E-02
   102  1.0100000000000E+00 -2.7326808870233E-01 -1.7384155628761E-02
   103  1.0200000000000E+00 -2.3738198041426E-01 -1.0187605314724E-01
   104  1.0300000000000E+00 -2.0200572415854E-01 -1.8200712039256E-01
   105  1.0400000000000E+00 -1.6749363474871E-01 -2.5706192857238E-01
   106  1.0500000000000E+00 -1.3418215673699E-01 -3.2637814837153E-01
   107  1.0600000000000E+00 -1.0238514406672E-01 -3.8935778615827E-01
   108  1.0700000000000E+00 -7.2389440440413E-02 -4.4547762806946E-01
   109  1.0800000000000E+00 -4.4450841401982E-02 -4.9429869132496E-01
   110  1.0900000000000E+00 -1.8790512832407E-02 -5.3547449838891E-01
   111  1.1000000000000E+00  4.4080673413211E-03 -5.6875800982471E-01
   112  1.1100000000000E+00  2.5001586813659E-02 -5.9400707559528E-01
   113  1.1200000000000E+00  4.2888749170402E-02 -6.1118829152757E-01
   114  1.1300000000000E+00  5.8011461782205E-02 -6.2037917746709E-01
   115  1.1400000000000E+00  7.0355338909508E-02 -6.2176862531980E-01
   116  1.1500000000000E+00  7.9949510898042E-02 -6.1565559860090E-01
   117  1.1600000000000E+00  8.6865743863533E-02 -6.0244609903668E-01
   118  1.1700000000000E+00  9.1216887990142E-02 -5.8264845014694E-01
   119  1.1800000000000E+00  9.3154685971756E-02 -5.5686698125287E-01
   120  1.1900000000000E+00  9.2866986332750E-02 -5.2579422844000E-01
   121  1.2000000000000E+00  9.0574417113652E-02 -4.9020179477260E-01
   122  1.2100000000000E+00  8.6526595160843E-02 -4.5093006721576E-01
   123  1.2200000000000E+00  8.0997138915335E-02 -4.0887442071360E-01
   124  1.2300000000000E+00  7.4275117117716E-02 -3.6496052825284E-01
   125  1.2400000000000E+00  6.6657518263794E-02 -3.2012351233901E-01
   126  1.2500000000000E+00  5.8443556388635E-02 -2.7529318597348E-01
   127  1.2600000000000E+00  4.9928976487967E-02 -2.3137934975758E-01
   128  1.2700000000000E+00  4.1400434418345E-02 -1.8925733802128E-01
   129  1.2800000000000E+00  3.3130077941425E-02 -1.4975401819595E-01
   130  1.2900000000000E+00  2.5369679909409E-02 -1.1363464487203E-01
   131  1.3000000000000E+00  1.8343867753793E-02 -8.1589328236183E-02
   132  1.3100000000000E+00  1.2252493502316E-02 -5.4221942229982E-02
   133  1.3200000000000E+00  7.2636716369592E-03 -3.2043395624154E-02
   134  1.3300000000000E+00  3.5103672873771E-03 -1.5465598507307E-02
   135  1.3400000000000E+00  1.0787987651432E-03 -4.7551606597040E-03
   136  1.3500000000000E+00  6.3681323906197E-05 -2.8136296767606E-04
   137  1.3600000000000E+00 -3.3119361994603E-06  1.4646667666844E-05
   138  1.3700000000000E+00 -6.2957418047633E-07  2.7774311563318E-06
   139  1.38 -0.  0.
   140  1.39  0.  0.
   141  1.40  0.  0.
   142  1.41  0.  0.
   143  1.42  0.  0.
   144  1.43  0.  0.
   145  1.44  0.  0.
   146  1.45  0.  0.
   147  1.46  0.  0.
   148  1.47  0.  0.
   149  1.48  0.  0.
   150  1.49  0.  0.
   151  1.50  0.  0.
   152  1.51  0.  0.
   153  1.52  0.  0.
   154  1.53  0.  0.
   155  1.54  0.  0.
   156  1.55  0.  0.
   157  1.56  0.  0.
   158  1.57  0.  0.
   159  1.58  0.  0.
   160  1.59  0.  0.
   161  1.60  0.  0.
   162  1.61  0.  0.
   163  1.62  0.  0.
   164  1.63  0.  0.
   165  1.64  0.  0.
   166  1.65  0.  0.
   167  1.66  0.  0.
   168  1.67  0.  0.
   169  1.68  0.  0.
   170  1.69  0.  0.
   171  1.70  0.  0.
   172  1.71  0.  0.
   173  1.72  0.  0.
   174  1.73  0.  0.
   175  1.74  0.  0.
   176  1.75  0.  0.
   177  1.76  0.  0.
   178  1.77  0.  0.
   179  1.78  0.  0.
   180  1.79  0.  0.
   181  1.80  0.  0.
   182  1.81  0.  0.
   183  1.82  0.  0.
   184  1.83  0.  0.
   185  1.84  0.  0.
   186  1.85  0.  0.
   187  1.86  0.  0.
   188  1.87  0.  0.
   189  1.88  0.  0.
   190  1.89  0.  0.
   191  1.90  0.  0.
   192  1.91  0.  0.
   193  1.92  0.  0.
   194  1.93  0.  0.
   195  1.94  0.  0.
   196  1.95  0.  0.
   197  1.96  0.  0.
   198  1.97  0.  0.
   199  1.98  0.  0.
   200  1.99  0.  0.
   201  2.00  0.  0.
   202  2.01  0.  0.
   203  2.02  0.  0.
   204  2.03  0.  0.
   205  2.04  0.  0.
   206  2.05  0.  0.
   207  2.06  0.  0.
   208  2.07  0.  0.
   209  2.08  0.  0.
   210  2.09  0.  0.
   211  2.10  0.  0.
   212  2.11  0.  0.
   213  2.12  0.  0.
   214  2.13  0.  0.
   215  2.14  0.  0.
   216  2.15  0.  0.
   217  2.16  0.  0.
   218  2.17  0.  0.
   219  2.18  0.  0.
   220  2.19  0.  0.
   221  2.20  0.  0.
   222  2.21  0.  0.
   223  2.22  0.  0.
   224  2.23  0.  0.
   225  2.24  0.  0.
   226  2.25  0.  0.
   227  2.26  0.  0.
   228  2.27  0.  0.
   229  2.28  0.  0.
   230  2.29  0.  0.
   231  2.30  0.  0.
   232  2.31  0.  0.
   233  2.32  0.  0.
   234  2.33  0.  0.
   235  2.34  0.  0.
   236  2.35  0.  0.
   237  2.36  0.  0.
   238  2.37  0.  0.
   239  2.38  0.  0.
   240  2.39  0.  0.
   241  2.40  0.  0.
   242  2.41  0.  0.
   243  2.42  0.  0.
   244  2.43  0.  0.
   245  2.44  0.  0.
   246  2.45  0.  0.
   247  2.46  0.  0.
   248  2.47  0.  0.
   249  2.48  0.  0.
   250  2.49  0.  0.
   251  2.50  0.  0.
   252  2.51  0.  0.
   253  2.52  0.  0.
   254  2.53  0.  0.
   255  2.54  0.  0.
   256  2.55  0.  0.
   257  2.56  0.  0.
   258  2.57  0.  0.
   259  2.58  0.  0.
   260  2.59  0.  0.
   261  2.60  0.  0.
   262  2.61  0.  0.
   263  2.62  0.  0.
   264  2.63  0.  0.
   265  2.64  0.  0.
   266  2.65  0.  0.
   267  2.66  0.  0.
   268  2.67  0.  0.
   269  2.68  0.  0.
   270  2.69  0.  0.
   271  2.70  0.  0.
   272  2.71  0.  0.
   273  2.72  0.  0.
   274  2.73  0.  0.
   275  2.74  0.  0.
   276  2.75  0.  0.
   277  2.76  0.  0.
   278  2.77  0.  0.
   279  2.78  0.  0.
   280  2.79  0.  0.
   281  2.80  0.  0.
   282  2.81  0.  0.
   283  2.82  0.  0.
   284  2.83  0.  0.
   285  2.84  0.  0.
   286  2.85  0.  0.
   287  2.86  0.  0.
   288  2.87  0.  0.
   289  2.88  0.  0.
   290  2.89  0.  0.
   291  2.90  0.  0.
   292  2.91  0.  0.
   293  2.92  0.  0.
   294  2.93  0.  0.
   295  2.94  0.  0.
   296  2.95  0.  0.
   297  2.96  0.  0.
   298  2.97  0.  0.
   299  2.98  0.  0.
   300  2.99  0.  0.
   301  3.00  0.  0.
   302  3.01  0.  0.
   303  3.02  0.  0.
   304  3.03  0.  0.
   305  3.04  0.  0.
   306  3.05  0.  0.
   307  3.06  0.  0.
   308  3.07  0.  0.
   309  3.08  0.  0.
   310  3.09  0.  0.
   311  3.10  0.  0.
   312  3.11  0.  0.
   313  3.12  0.  0.
   314  3.13  0.  0.
   315  3.14  0.  0.
   316  3.15  0.  0.
   317  3.16  0.  0.
   318  3.17  0.  0.
   319  3.18  0.  0.
   320  3.19  0.  0.
   321  3.20  0.  0.
   322  3.21  0.  0.
   323  3.22  0.  0.
   324  3.23  0.  0.
   325  3.24  0.  0.
   326  3.25  0.  0.
   327  3.26  0.  0.
   328  3.27  0.  0.
   329  3.28  0.  0.
   330  3.29  0.  0.
   331  3.30  0.  0.
   332  3.31  0.  0.
   333  3.32  0.  0.
   334  3.33  0.  0.
   335  3.34  0.  0.
   336  3.35  0.  0.
   337  3.36  0.  0.
   338  3.37  0.  0.
   339  3.38  0.  0.
   340  3.39  0.  0.
   341  3.40  0.  0.
   342  3.41  0.  0.
   343  3.42  0.  0.
   344  3.43  0.  0.
   345  3.44  0.  0.
   346  3.45  0.  0.
   347  3.46  0.  0.
   348  3.47  0.  0.
   349  3.48  0.  0.
   350  3.49  0.  0.
   351  3.50  0.  0.
   352  3.51  0.  0.
   353  3.52  0.  0.
   354  3.53  0.  0.
   355  3.54  0.  0.
   356  3.55  0.  0.
   357  3.56  0.  0.
   358  3.57  0.  0.
   359  3.58  0.  0.
   360  3.59  0.  0.
   361  3.60  0.  0.
   362  3.61  0.  0.
   363  3.62  0.  0.
   364  3.63  0.  0.
   365  3.64  0.  0.
   366  3.65  0.  0.
   367  3.66  0.  0.
   368  3.67  0.  0.
   369  3.68  0.  0.
   370  3.69  0.  0.
   371  3.70  0.  0.
   372  3.71  0.  0.
   373  3.72  0.  0.
   374  3.73  0.  0.
   375  3.74  0.  0.
   376  3.75  0.  0.
   377  3.76  0.  0.
   378  3.77  0.  0.
   379  3.78  0.  0.
   380  3.79  0.  0.
   381  3.80  0.  0.
   382  3.81  0.  0.
   383  3.82  0.  0.
   384  3.83  0.  0.
   385  3.84  0.  0.
   386  3.85  0.  0.
   387  3.86  0.  0.
   388  3.87  0.  0.
   389  3.88  0.  0.
   390  3.89  0.  0.
   391  3.90  0.  0.
   392  3.91  0.  0.
   393  3.92  0.  0.
   394  3.93  0.  0.
   395  3.94  0.  0.
   396  3.95  0.  0.
   397  3.96  0.  0.
   398  3.97  0.  0.
   399  3.98  0.  0.
   400  3.99  0.  0.
   401  4.00  0.  0.
   402  4.01  0.  0.
   403  4.02  0.  0.
   404  4.03  0.  0.
   405  4.04  0.  0.
   406  4.05  0.  0.
   407  4.06  0.  0.
   408  4.07  0.  0.
   409  4.08  0.  0.
   410  4.09  0.  0.
   411  4.10  0.  0.
   412  4.11  0.  0.
   413  4.12  0.  0.
   414  4.13  0.  0.
   415  4.14  0.  0.
   416  4.15  0.  0.
   417  4.16  0.  0.
   418  4.17  0.  0.
   419  4.18  0.  0.
   420  4.19  0.  0.
   421  4.20  0.  0.
   422  4.21  0.  0.
   423  4.22  0.  0.
   424  4.23  0.  0.
   425  4.24  0.  0.
   426  4.25  0.  0.
   427  4.26  0.  0.
   428  4.27  0.  0.
   429  4.28  0.  0.
   430  4.29  0.  0.
   431  4.30  0.  0.
   432  4.31  0.  0.
   433  4.32  0.  0.
   434  4.33  0.  0.
   435  4.34  0.  0.
   436  4.35  0.  0.
   437  4.36  0.  0.
   438  4.37  0.  0.
   439  4.38  0.  0.
   440  4.39  0.  0.
   441  4.40  0.  0.
   442  4.41  0.  0.
   443  4.42  0.  0.
   444  4.43  0.  0.
   445  4.44  0.  0.
   446  4.45  0.  0.
   447  4.46  0.  0.
   448  4.47  0.  0.
   449  4.48  0.  0.
   450  4.49  0.  0.
   451  4.50  0.  0.
   452  4.51  0.  0.
   453  4.52  0.  0.
   454  4.53  0.  0.
   455  4.54  0.  0.
   456  4.55  0.  0.
   457  4.56  0.  0.
   458  4.57  0.  0.
   459  4.58  0.  0.
   460  4.59  0.  0.
   461  4.60  0.  0.
   462  4.61  0.  0.
   463  4.62  0.  0.
   464  4.63  0.  0.
   465  4.64  0.  0.
   466  4.65  0.  0.
   467  4.66  0.  0.
   468  4.67  0.  0.
   469  4.68  0.  0.
   470  4.69  0.  0.
   471  4.70  0.  0.
   472  4.71  0.  0.
   473  4.72  0.  0.
   474  4.73  0.  0.
   475  4.74  0.  0.
   476  4.75  0.  0.
   477  4.76  0.  0.
   478  4.77  0.  0.
   479  4.78  0.  0.
   480  4.79  0.  0.
   481  4.80  0.  0.
   482  4.81  0.  0.
   483  4.82  0.  0.
   484  4.83  0.  0.
   485  4.84  0.  0.
   486  4.85  0.  0.
   487  4.86  0.  0.
   488  4.87  0.  0.
   489  4.88  0.  0.
   490  4.89  0.  0.
   491  4.90  0.  0.
   492  4.91  0.  0.
   493  4.92  0.  0.
   494  4.93  0.  0.
   495  4.94  0.  0.
   496  4.95  0.  0.
   497  4.96  0.  0.
   498  4.97  0.  0.
   499  4.98  0.  0.
   500  4.99  0.  0.
   501  5.00  0.  0.
   502  5.01  0.  0.
   503  5.02  0.  0.
   504  5.03  0.  0.
   505  5.04  0.  0.
   506  5.05  0.  0.
   507  5.06  0.  0.
   508  5.07  0.  0.
   509  5.08  0.  0.
   510  5.09  0.  0.
   511  5.10  0.  0.
   512  5.11  0.  0.
   513  5.12  0.  0.
   514  5.13  0.  0.
   515  5.14  0.  0.
   516  5.15  0.  0.
   517  5.16  0.  0.
   518  5.17  0.  0.
   519  5.18  0.  0.
   520  5.19  0.  0.
   521  5.20  0.  0.
   522  5.21  0.  0.
   523  5.22  0.  0.
   524  5.23  0.  0.
   525  5.24  0.  0.
   526  5.25  0.  0.
   527  5.26  0.  0.
   528  5.27  0.  0.
   529  5.28  0.  0.
   530  5.29  0.  0.
   531  5.30  0.  0.
   532  5.31  0.  0.
   533  5.32  0.  0.
   534  5.33  0.  0.
   535  5.34  0.  0.
   536  5.35  0.  0.
   537  5.36  0.  0.
   538  5.37  0.  0.
   539  5.38  0.  0.
   540  5.39  0.  0.
   541  5.40  0.  0.
   542  5.41  0.  0.
   543  5.42  0.  0.
   544  5.43  0.  0.
   545  5.44  0.  0.
   546  5.45  0.  0.
   547  5.46  0.  0.
   548  5.47  0.  0.
   549  5.48  0.  0.
   550  5.49  0.  0.
   551  5.50  0.  0.
   552  5.51  0.  0.
   553  5.52  0.  0.
   554  5.53  0.  0.
   555  5.54  0.  0.
   556  5.55  0.  0.
   557  5.56  0.  0.
   558  5.57  0.  0.
   559  5.58  0.  0.
   560  5.59  0.  0.
   561  5.60  0.  0.
   562  5.61  0.  0.
   563  5.62  0.  0.
   564  5.63  0.  0.
   565  5.64  0.  0.
   566  5.65  0.  0.
   567  5.66  0.  0.
   568  5.67  0.  0.
   569  5.68  0.  0.
   570  5.69  0.  0.
   571  5.70  0.  0.
   572  5.71  0.  0.
   573  5.72  0.  0.
   574  5.73  0.  0.
   575  5.74  0.  0.
   576  5.75  0.  0.
   577  5.76  0.  0.
   578  5.77  0.  0.
   579  5.78  0.  0.
   580  5.79  0.  0.
   581  5.80  0.  0.
   582  5.81  0.  0.
   583  5.82  0.  0.
   584  5.83  0.  0.
   585  5.84  0.  0.
   586  5.85  0.  0.
   587  5.86  0.  0.
   588  5.87  0.  0.
   589  5.88  0.  0.
   590  5.89  0.  0.
   591  5.90  0.  0.
   592  5.91  0.  0.
   593  5.92  0.  0.
   594  5.93  0.  0.
   595  5.94  0.  0.
   596  5.95  0.  0.
   597  5.96  0.  0.
   598  5.97  0.  0.
   599  5.98  0.  0.
   600  5.99  0.  0.
   1                        -4.7730847052445E+00 -1.1270054727550E+00
     1  0.0000000000000E+00 -2.9003823787122E-09  7.0614234806698E-09
     2  1.0000000000000E-02  2.0756260225011E-03 -8.6914269480276E-04
     3  2.0000000000000E-02  8.2944000418115E-03 -3.4729952264533E-03
     4  3.0000000000000E-02  1.8631984626878E-02 -7.8007161574497E-03
     5  4.0000000000000E-02  3.3047734967094E-02 -1.3833858323052E-02
     6  5.0000000000000E-02  5.1484581700434E-02 -2.1545817286978E-02
     7  6.0000000000000E-02  7.3868879615213E-02 -3.0901089951983E-02
     8  7.0000000000000E-02  1.0011023452929E-01 -4.1854373072651E-02
     9  8.0000000000000E-02  1.3010132355095E-01 -5.4349538479126E-02
    10  9.0000000000000E-02  1.6371772638727E-01 -6.8318527856371E-02
    11  1.0000000000000E-01  2.0081778731269E-01 -8.3680214756788E-02
    12  1.1000000000000E-01  2.4124252878223E-01 -1.0033928501344E-01
    13  1.2000000000000E-01  2.8481563842276E-01 -1.1818518875675E-01
    14  1.3000000000000E-01  3.3134355123076E-01 -1.3709121774664E-01
    15  1.4000000000000E-01  3.8061564823228E-01 -1.5691376068324E-01
    16  1.5000000000000E-01  4.3240459162223E-01 -1.7749178655861E-01
    17  1.6000000000000E-01  4.8646681451623E-01 -1.9864660200774E-01
    18  1.7000000000000E-01  5.4254318095493E-01 -2.2018192309463E-01
    19  1.8000000000000E-01  6.0035982875191E-01 -2.4188429515564E-01
    20  1.9000000000000E-01  6.5962920423773E-01 -2.6352388637225E-01
    21  2.0000000000000E-01  7.2005129400703E-01 -2.8485567185192E-01
    22  2.1000000000000E-01  7.8131505451304E-01 -3.0562101537132E-01
    23  2.2000000000000E-01  8.4310003587760E-01 -3.2554964582134E-01
    24  2.3000000000000E-01  9.0507819170121E-01 -3.4436201503636E-01
    25  2.4000000000000E-01  9.6691586208022E-01 -3.6177201335558E-01
    26  2.5000000000000E-01  1.0282759125803E+00 -3.7749000921572E-01
    27  2.6000000000000E-01  1.0888200076888E+00 -3.9122616957213E-01
    28  2.7000000000000E-01  1.1482109933840E+00 -4.0269400924031E-01
    29  2.8000000000000E-01  1.2061153600140E+00 -4.1161410957781E-01
    30  2.9000000000000E-01  1.2622057537708E+00 -4.1771794049676E-01
    31  3.0000000000000E-01  1.3161635027493E+00 -4.2075171479650E-01
    32  3.1000000000000E-01  1.3676811219731E+00 -4.2048020038392E-01
    33  3.2000000000000E-01  1.4164647608874E+00 -4.1669041422205E-01
    34  3.3000000000000E-01  1.4622365567173E+00 -4.0919512188860E-01
    35  3.4000000000000E-01  1.5047368577622E+00 -3.9783606846996E-01
    36  3.5000000000000E-01  1.5437262821664E+00 -3.8248687014984E-01
    37  3.6000000000000E-01  1.5789875799271E+00 -3.6305550122192E-01
    38  3.7000000000000E-01  1.6103272688607E+00 -3.3948631826438E-01
    39  3.8000000000000E-01  1.6375770188675E+00 -3.1176157172106E-01
    40  3.9000000000000E-01  1.6605947630573E+00 -2.7990236496494E-01
    41  4.0000000000000E-01  1.6792655190307E+00 -2.4396903185884E-01
    42  4.1000000000000E-01  1.6935019087464E+00 -2.0406091563830E-01
    43  4.2000000000000E-01  1.7032443708473E+00 -1.6031554435396E-01
    44  4.3000000000000E-01  1.7084610649300E+00 -1.1290721084220E-01
    45  4.4000000000000E-01  1.7091474729125E+00 -6.2044977947884E-02
    46  4.5000000000000E-01  1.7053257082494E+00 -7.9701422004870E-03
    47  4.6000000000000E-01  1.6970435491353E+00  4.9046798952886E-02
    48  4.7000000000000E-01  1.6843732169017E+00  1.0870962021616E-01
    49  4.8000000000000E-01  1.6674099254397E+00  1.7070021577044E-01
    50  4.9000000000000E-01  1.6462702315458E+00  2.3468274629657E-01
    51  5.0000000000000E-01  1.6210902195165E+00  3.0030800421829E-01
    52  5.1000000000000E-01  1.5920235560052E+00  3.6721791056424E-01
    53  5.2000000000000E-01  1.5592394530540E+00  4.3505005365219E-01
    54  5.3000000000000E-01  1.5229205782625E+00  5.0344217863577E-01
    55  5.4000000000000E-01  1.4832609512387E+00  5.7203653787496E-01
    56  5.5000000000000E-01  1.4404638647717E+00  6.4048401510283E-01
    57  5.6000000000000E-01  1.3947398676020E+00  7.0844794141499E-01
    58  5.7000000000000E-01  1.3463048432571E+00  7.7560752811275E-01
    59  5.8000000000000E-01  1.2953782162375E+00  8.4166085024235E-01
    60  5.9000000000000E-01  1.2421813129417E+00  9.0632732510724E-01
    61  6.0000000000000E-01  1.1869359002027E+00  9.6934964185681E-01
    62  6.1000000000000E-01  1.1298629192775E+00  1.0304951112137E+00
    63  6.2000000000000E-01  1.0711814277043E+00  1.0895564181963E+00
    64  6.3000000000000E-01  1.0111077557410E+00  1.1463517750052E+00
    65  6.4000000000000E-01  9.4985487827375E-01  1.2007244857436E+00
    66  6.5000000000000E-01  8.8763199725895E-01  1.2525419489763E+00
    67  6.6000000000000E-01  8.2464432409332E-01  1.3016941379735E+00
    68  6.7000000000000E-01  7.6109304592293E-01  1.3480916114770E+00
    69  6.8000000000000E-01  6.9717545494516E-01  1.3916631196681E+00
    70  6.9000000000000E-01  6.3308521534772E-01  1.4323528803831E+00
    71  7.0000000000000E-01  5.6901273878206E-01  1.4701176092751E+00
    72  7.1000000000000E-01  5.0514563628260E-01  1.5049233943034E+00
    73  7.2000000000000E-01  4.4166921239990E-01  1.5367425094678E+00
    74  7.3000000000000E-01  3.7876696607774E-01  1.5655502649580E+00
    75  7.4000000000000E-01  3.1662106251073E-01  1.5913219907587E+00
    76  7.5000000000000E-01  2.5541274089195E-01  1.6140302482154E+00
    77  7.6000000000000E-01  1.9532262459184E-01  1.6336423591442E+00
    78  7.7000000000000E-01  1.3653090287535E-01  1.6501183348438E+00
    79  7.8000000000000E-01  7.9217356711982E-02  1.6634092779693E+00
    80  7.9000000000000E-01  2.3561205491748E-02  1.6734563188538E+00
    81  8.0000000000000E-01 -3.0259243564820E-02  1.6801901347477E+00
    82  8.1000000000000E-01 -8.2067155933890E-02  1.6835310858725E+00
    83  8.2000000000000E-01 -1.3168794682513E-01  1.6833899864831E+00
    84  8.3000000000000E-01 -1.7895027490660E-01  1.6796695126451E+00
    85  8.4000000000000E-01 -2.2368724631729E-01  1.6722662315574E+00
    86  8.5000000000000E-01 -2.6573781596296E-01  1.6610732203583E+00
    87  8.6000000000000E-01 -3.0494836662415E-01  1.6459832258729E+00
    88  8.7000000000000E-01 -3.4117444023618E-01  1.6268923010637E+00
    89  8.8000000000000E-01 -3.7428258998913E-01  1.6037038394492E+00
    90  8.9000000000000E-01 -4.0415231678904E-01  1.5763329158017E+00
    91  9.0000000000000E-01 -4.3067804925844E-01  1.5447108303771E+00
    92  9.1000000000000E-01 -4.5377112295853E-01  1.5087897450627E+00
    93  9.2000000000000E-01 -4.7336171199103E-01  1.4685472934038E+00
    94  9.3000000000000E-01 -4.8940066466904E-01  1.4239910426971E+00
    95  9.4000000000000E-01 -5.0186119459551E-01  1.3751626853533E+00
    96  9.5000000000000E-01 -5.1074037928970E-01  1.3221418386313E+00
    97  9.6000000000000E-01 -5.1606042046859E-01  1.2650493366348E+00
    98  9.7000000000000E-01 -5.1786962320376E-01  1.2040499061060E+00
    99  9.8000000000000E-01 -5.1624305539086E-01  1.1393541279318E+00
   100  9.9000000000000E-01 -5.1128285422324E-01  1.0712195992215E+00
   101  1.0000000000000E+00 -5.0311815255408E-01  9.9995122608426E-01
   102  1.0100000000000E+00 -4.9190460504790E-01  9.2590059453203E-01
   103  1.0200000000000E+00 -4.7782350172336E-01  8.4946438591551E-01
   104  1.0300000000000E+00 -4.6108046472212E-01  7.7108182359154E-01
   105  1.0400000000000E+00 -4.4190373272255E-01  6.9123115866220E-01
   106  1.0500000000000E+00 -4.2054204617831E-01  6.1042522420022E-01
   107  1.0600000000000E+00 -3.9726215531483E-01  5.2920610891251E-01
   108  1.0700000000000E+00 -3.7234598134429E-01  4.4813902216695E-01
   109  1.0800000000000E+00 -3.4608746950973E-01  3.6780544233557E-01
   110  1.0900000000000E+00 -3.1878918011520E-01  2.8879565893762E-01
   111  1.1000000000000E+00 -2.9075867049007E-01  2.1170083572426E-01
   112  1.1100000000000E+00 -2.6230472670638E-01  1.3710473622940E-01
   113  1.1200000000000E+00 -2.3373350865544E-01  6.5575265016492E-02
   114  1.1300000000000E+00 -2.0534467569947E-01 -2.3440133472721E-03
   115  1.1400000000000E+00 -1.7742756241436E-01 -6.6142209986191E-02
   116  1.1500000000000E+00 -1.5025747488009E-01 -1.2534913225197E-01
   117  1.1600000000000E+00 -1.2409217750362E-01 -1.7954282052141E-01
   118  1.1700000000000E+00 -9.9168638446357E-02 -2.2835643747021E-01
   119  1.1800000000000E+00 -7.5700098424592E-02 -2.7148435424464E-01
   120  1.1900000000000E+00 -5.3873523013589E-02 -3.0868728936339E-01
   121  1.2000000000000E+00 -3.3847492090475E-02 -3.3979637284053E-01
   122  1.2100000000000E+00 -1.5750575937219E-02 -3.6471601453590E-01
   123  1.2200000000000E+00  3.2005494240146E-04 -3.8342653947144E-01
   124  1.2300000000000E+00  1.4300648438907E-02 -3.9598963663823E-01
   125  1.2400000000000E+00  2.6161892850202E-02 -4.0255062377370E-01
   126  1.2500000000000E+00  3.5908661334157E-02 -4.0333669436544E-01
   127  1.2600000000000E+00  4.3579171452962E-02 -3.9865373751558E-01
   128  1.2700000000000E+00  4.9243579796012E-02 -3.8888179272761E-01
   129  1.2800000000000E+00  5.3002037974176E-02 -3.7446921229211E-01
   130  1.2900000000000E+00  5.4982242750150E-02 -3.5592561484547E-01
   131  1.3000000000000E+00  5.5336523147852E-02 -3.3381373869389E-01
   132  1.3100000000000E+00  5.4238516427412E-02 -3.0874032560901E-01
   133  1.3200000000000E+00  5.1879492951776E-02 -2.8134618568182E-01
   134  1.3300000000000E+00  4.8464397027533E-02 -2.5229561102969E-01
   135  1.3400000000000E+00  4.4207676578210E-02 -2.2226532020053E-01
   136  1.3500000000000E+00  3.9328978925829E-02 -1.9193312582115E-01
   137  1.3600000000000E+00  3.4048792514855E-02 -1.6196652435977E-01
   138  1.3700000000000E+00  2.8584121376989E-02 -1.3301142128172E-01
   139  1.3800000000000E+00  2.3144270452442E-02 -1.0568118402529E-01
   140  1.3900000000000E+00  1.7929205118931E-02 -8.0550915437279E-02
   141  1.4000000000000E+00  1.3122792254680E-02 -5.8141975448731E-02
   142  1.4100000000000E+00  8.8860284734083E-03 -3.8906457720679E-02
   143  1.4200000000000E+00  5.3584282959275E-03 -2.3228036362155E-02
   144  1.4300000000000E+00  2.6558239645261E-03 -1.1417666201495E-02
   145  1.4400000000000E+00  8.5980473334099E-04 -3.6719428846608E-03