F     ONCVPSP-4.0.1  r_core=   1.52435   1.52435   1.52435
      9.0000      7.0000      230118    zatom,zion,pspd
     8       2   2     4   600     0    pspcod,pspxc,lmax,lloc,mmax,r2well
  5.99000000  2.50000000  0.00000000    rchrg fchrg qchrg
     2     2     1     0     0    nproj
     1     1           extension_switch
   0                         8.1565215451999E+00  8.6082377348659E-01
     1  0.0000000000000E+00  3.4921721070447E-10 -1.7946925612300E-09
     2  1.0000000000000E-02  9.5708953697554E-02 -3.5340182774266E-02
     3  2.0000000000000E-02  1.9112848954818E-01 -7.0469183210870E-02
     4  3.0000000000000E-02  2.8597011279004E-01 -1.0517590456695E-01
     5  4.0000000000000E-02  3.7994717589805E-01 -1.3924944195889E-01
     6  5.0000000000000E-02  4.7277580477790E-01 -1.7247922950079E-01
     7  6.0000000000000E-02  5.6417582779765E-01 -2.0465524759654E-01
     8  7.0000000000000E-02  6.5387170818531E-01 -2.3556830829614E-01
     9  8.0000000000000E-02  7.4159347997134E-01 -2.6501043483122E-01
    10  9.0000000000000E-02  8.2707768722936E-01 -2.9277534925140E-01
    11  1.0000000000000E-01  9.1006832587283E-01 -3.1865907952314E-01
    12  1.1000000000000E-01  9.9031778670895E-01 -3.4246069456577E-01
    13  1.2000000000000E-01  1.0675877978429E+00 -3.6398317253021E-01
    14  1.3000000000000E-01  1.1416503638760E+00 -3.8303440422389E-01
    15  1.4000000000000E-01  1.2122886986652E+00 -3.9942833000656E-01
    16  1.5000000000000E-01  1.2792981477125E+00 -4.1298620478464E-01
    17  1.6000000000000E-01  1.3424870955631E+00 -4.2353798198038E-01
    18  1.7000000000000E-01  1.4016778528967E+00 -4.3092380361205E-01
    19  1.8000000000000E-01  1.4567075173441E+00 -4.3499557996275E-01
    20  1.9000000000000E-01  1.5074288014393E+00 -4.3561863880658E-01
    21  2.0000000000000E-01  1.5537108205544E+00 -4.3267342087268E-01
    22  2.1000000000000E-01  1.5954398331764E+00 -4.2605719523246E-01
    23  2.2000000000000E-01  1.6325199254752E+00 -4.1568576565541E-01
    24  2.3000000000000E-01  1.6648736318085E+00 -4.0149513676659E-01
    25  2.4000000000000E-01  1.6924424826119E+00 -3.8344310710878E-01
    26  2.5000000000000E-01  1.7151874710538E+00 -3.6151075502297E-01
    27  2.6000000000000E-01  1.7330894298949E+00 -3.3570378266101E-01
    28  2.7000000000000E-01  1.7461493101971E+00 -3.0605368347309E-01
    29  2.8000000000000E-01  1.7543883538828E+00 -2.7261869920448E-01
    30  2.9000000000000E-01  1.7578481526471E+00 -2.3548453380980E-01
    31  3.0000000000000E-01  1.7565905863897E+00 -1.9476479376497E-01
    32  3.1000000000000E-01  1.7506976351482E+00 -1.5060112701925E-01
    33  3.2000000000000E-01  1.7402710594786E+00 -1.0316303627971E-01
    34  3.3000000000000E-01  1.7254319453417E+00 -5.2647346423142E-02
    35  3.4000000000000E-01  1.7063201108003E+00  7.2268944192465E-04
    36  3.5000000000000E-01  1.6830933732043E+00  5.6698655444491E-02
    37  3.6000000000000E-01  1.6559266770229E+00  1.1500861432623E-01
    38  3.7000000000000E-01  1.6250110840608E+00  1.7535912285141E-01
    39  3.8000000000000E-01  1.5905526294473E+00  2.3743761278195E-01
    40  3.9000000000000E-01  1.5527710484955E+00  3.0091512208446E-01
    41  4.0000000000000E-01  1.5118983812661E+00  3.6544935400975E-01
    42  4.1000000000000E-01  1.4681774634237E+00  4.3068803459751E-01
    43  4.2000000000000E-01  1.4218603137020E+00  4.9627253212405E-01
    44  4.3000000000000E-01  1.3732064299897E+00  5.6184169513309E-01
    45  4.4000000000000E-01  1.3224810076749E+00  6.2703585908636E-01
    46  4.5000000000000E-01  1.2699530954233E+00  6.9150096544388E-01
    47  4.6000000000000E-01  1.2158937049870E+00  7.5489273124270E-01
    48  4.7000000000000E-01  1.1605738929314E+00  8.1688080207891E-01
    49  4.8000000000000E-01  1.1042628332968E+00  8.7715281690294E-01
    50  4.9000000000000E-01  1.0472259011737E+00  9.3541830928519E-01
    51  5.0000000000000E-01  9.8972278793906E-01  9.9141236686443E-01
    52  5.1000000000000E-01  9.3200566947437E-01  1.0448989686032E+00
    53  5.2000000000000E-01  8.7431744904867E-01  1.0956739182750E+00
    54  5.3000000000000E-01  8.1689009670196E-01  1.1435672923161E+00
    55  5.4000000000000E-01  7.5994310690089E-01  1.1884453207899E+00
    56  5.5000000000000E-01  7.0368209596712E-01  1.2302116217104E+00
    57  5.6000000000000E-01  6.4829756030210E-01  1.2688077113301E+00
    58  5.7000000000000E-01  5.9396381576368E-01  1.3042127161473E+00
    59  5.8000000000000E-01  5.4083813770184E-01  1.3364422162794E+00
    60  5.9000000000000E-01  4.8906012015208E-01  1.3655461543824E+00
    61  6.0000000000000E-01  4.3875127153430E-01  1.3916057493896E+00
    62  6.1000000000000E-01  3.9001486293574E-01  1.4147293598863E+00
    63  6.2000000000000E-01  3.4293604369295E-01  1.4350472478123E+00
    64  6.3000000000000E-01  2.9758223755554E-01  1.4527051992782E+00
    65  6.4000000000000E-01  2.5400383124040E-01  1.4678569654726E+00
    66  6.5000000000000E-01  2.1223516569574E-01  1.4806554927955E+00
    67  6.6000000000000E-01  1.7229583891618E-01  1.4912429173685E+00
    68  6.7000000000000E-01  1.3419232770095E-01  1.4997393046349E+00
    69  6.8000000000000E-01  9.7919934373839E-02  1.5062301205995E+00
    70  6.9000000000000E-01  6.3465174120790E-02  1.5107559158977E+00
    71  7.0000000000000E-01  3.0809172832817E-02  1.5133350397271E+00
    72  7.1000000000000E-01 -7.0116208903078E-05  1.5139915359476E+00
    73  7.2000000000000E-01 -2.9197336324108E-02  1.5127558101977E+00
    74  7.3000000000000E-01 -5.6599280499511E-02  1.5096626722828E+00
    75  7.4000000000000E-01 -8.2304456034963E-02  1.5047494563920E+00
    76  7.5000000000000E-01 -1.0634266915770E-01  1.4980542588053E+00
    77  7.6000000000000E-01 -1.2874463754534E-01  1.4896143275296E+00
    78  7.7000000000000E-01 -1.4954163798275E-01  1.4794646354100E+00
    79  7.8000000000000E-01 -1.6876519554511E-01  1.4676366645431E+00
    80  7.9000000000000E-01 -1.8644681975392E-01  1.4541574255363E+00
    81  8.0000000000000E-01 -2.0261779210967E-01  1.4390487304033E+00
    82  8.1000000000000E-01 -2.1730900828345E-01  1.4223267327413E+00
    83  8.2000000000000E-01 -2.3055087706848E-01  1.4040017433954E+00
    84  8.3000000000000E-01 -2.4237327697304E-01  1.3840783241864E+00
    85  8.4000000000000E-01 -2.5280557010045E-01  1.3625556565592E+00
    86  8.5000000000000E-01 -2.6187667173216E-01  1.3394281763126E+00
    87  8.6000000000000E-01 -2.6961517282875E-01  1.3146864599991E+00
    88  8.7000000000000E-01 -2.7604951151380E-01  1.2883183432510E+00
    89  8.8000000000000E-01 -2.8120818852810E-01  1.2603102462871E+00
    90  8.9000000000000E-01 -2.8512002065703E-01  1.2306486772884E+00
    91  9.0000000000000E-01 -2.8781442526171E-01  1.1993218802879E+00
    92  9.1000000000000E-01 -2.8932172830026E-01  1.1663215907774E+00
    93  9.2000000000000E-01 -2.8967348762593E-01  1.1316448594654E+00
    94  9.3000000000000E-01 -2.8890282290412E-01  1.0952959025813E+00
    95  9.4000000000000E-01 -2.8704474321223E-01  1.0572879358591E+00
    96  9.5000000000000E-01 -2.8413646327877E-01  1.0176449488769E+00
    97  9.6000000000000E-01 -2.8021769938768E-01  9.7640337679360E-01
    98  9.7000000000000E-01 -2.7533093621806E-01  9.3361362771803E-01
    99  9.8000000000000E-01 -2.6952165630712E-01  8.8934142594697E-01
   100  9.9000000000000E-01 -2.6283852440884E-01  8.4366893409358E-01
   101  1.0000000000000E+00 -2.5533351976306E-01  7.9669562065580E-01
   102  1.0100000000000E+00 -2.4706201017774E-01  7.4853884378201E-01
   103  1.0200000000000E+00 -2.3808276284567E-01  6.9933412681525E-01
   104  1.0300000000000E+00 -2.2845788795007E-01  6.4923510655598E-01
   105  1.0400000000000E+00 -2.1825271233905E-01  5.9841314097890E-01
   106  1.0500000000000E+00 -2.0753558184807E-01  5.4705656927898E-01
   107  1.0600000000000E+00 -1.9637759219916E-01  4.9536962349856E-01
   108  1.0700000000000E+00 -1.8485224977811E-01  4.4357099747409E-01
   109  1.0800000000000E+00 -1.7303506496797E-01  3.9189208534841E-01
   110  1.0900000000000E+00 -1.6100308206774E-01  3.4057490827822E-01
   111  1.1000000000000E+00 -1.4883435112705E-01  2.8986975412586E-01
   112  1.1100000000000E+00 -1.3660734825952E-01  2.4003256075214E-01
   113  1.1200000000000E+00 -1.2440035212863E-01  1.9132207888749E-01
   114  1.1300000000000E+00 -1.1229078531992E-01  1.4399685539634E-01
   115  1.1400000000000E+00 -1.0035453018957E-01  9.8312081916012E-02
   116  1.1500000000000E+00 -8.8665229508039E-02  5.4516357324709E-02
   117  1.1600000000000E+00 -7.7294004047113E-02  1.2851164532373E-02
   118  1.1700000000000E+00 -6.6304725591935E-02 -2.6478694171017E-02
   119  1.1800000000000E+00 -5.5797698047195E-02 -6.3019213329344E-02
   120  1.1900000000000E+00 -4.5781858564839E-02 -9.6901818372310E-02
   121  1.2000000000000E+00 -3.6325651435769E-02 -1.2785200503174E-01
   122  1.2100000000000E+00 -2.7473034823849E-02 -1.5574069998434E-01
   123  1.2200000000000E+00 -1.9263704346308E-02 -1.8045058026678E-01
   124  1.2300000000000E+00 -1.1730008841773E-02 -2.0189559600289E-01
   125  1.2400000000000E+00 -4.8969068672416E-03 -2.2002069250970E-01
   126  1.2500000000000E+00  1.2182885338057E-03 -2.3480309712474E-01
   127  1.2600000000000E+00  6.6060717081792E-03 -2.4625317842489E-01
   128  1.2700000000000E+00  1.1264808195975E-02 -2.5441485494023E-01
   129  1.2800000000000E+00  1.5200697210215E-02 -2.5936553729951E-01
   130  1.2900000000000E+00  1.8427631097002E-02 -2.6121559498213E-01
   131  1.3000000000000E+00  2.0966951683954E-02 -2.6010734632852E-01
   132  1.3100000000000E+00  2.2847105047377E-02 -2.5621357803244E-01
   133  1.3200000000000E+00  2.4103197850519E-02 -2.4973560791085E-01
   134  1.3300000000000E+00  2.4776460000657E-02 -2.4090091220031E-01
   135  1.3400000000000E+00  2.4913619904173E-02 -2.2996034578770E-01
   136  1.3500000000000E+00  2.4566200046676E-02 -2.1718499055718E-01
   137  1.3600000000000E+00  2.3789741971862E-02 -2.0286267334060E-01
   138  1.3700000000000E+00  2.2642970940040E-02 -1.8729420061777E-01
   139  1.3800000000000E+00  2.1186911605638E-02 -1.7078936208078E-01
   140  1.3900000000000E+00  1.9483966937502E-02 -1.5366275933718E-01
   141  1.4000000000000E+00  1.7596973307073E-02 -1.3622951933482E-01
   142  1.4100000000000E+00  1.5588245166935E-02 -1.1880095445181E-01
   143  1.4200000000000E+00  1.3518623658009E-02 -1.0168023509467E-01
   144  1.4300000000000E+00  1.1446534728286E-02 -8.5158105905646E-02
   145  1.4400000000000E+00  9.4271098832072E-03 -6.9508863813525E-02
   146  1.4500000000000E+00  7.5111095676992E-03 -5.4985584366427E-02
   147  1.4600000000000E+00  5.7415944785709E-03 -4.1806237137531E-02
   148  1.4700000000000E+00  4.1584736579652E-03 -3.0171403325440E-02
   149  1.4800000000000E+00  2.7975468732444E-03 -2.0260389773564E-02
   150  1.4900000000000E+00  1.6872252097912E-03 -1.2217841671183E-02
   151  1.5000000000000E+00  8.4845189151776E-04 -6.1537951156674E-03
   152  1.5100000000000E+00  2.9180220638415E-04 -2.1233894185633E-03
   153  1.5200000000000E+00  3.2135631982959E-05 -2.3511526980506E-04
   154  1.5300000000000E+00 -4.4912664500290E-06  3.2946626515213E-05
   155  1.5400000000000E+00  1.2634313917579E-06 -9.2429956335786E-06
   156  1.55 -0.  0.
   157  1.56  0. -0.
   158  1.57  0.  0.
   159  1.58  0.  0.
   160  1.59  0.  0.
   161  1.60  0.  0.
   162  1.61  0.  0.
   163  1.62  0.  0.
   164  1.63  0.  0.
   165  1.64  0.  0.
   166  1.65  0.  0.
   167  1.66  0.  0.
   168  1.67  0.  0.
   169  1.68  0.  0.
   170  1.69  0.  0.
   171  1.70  0.  0.
   172  1.71  0.  0.
   173  1.72  0.  0.
   174  1.73  0.  0.
   175  1.74  0.  0.
   176  1.75  0.  0.
   177  1.76  0.  0.
   178  1.77  0.  0.
   179  1.78  0.  0.
   180  1.79  0.  0.
   181  1.80  0.  0.
   182  1.81  0.  0.
   183  1.82  0.  0.
   184  1.83  0.  0.
   185  1.84  0.  0.
   186  1.85  0.  0.
   187  1.86  0.  0.
   188  1.87  0.  0.
   189  1.88  0.  0.
   190  1.89  0.  0.
   191  1.90  0.  0.
   192  1.91  0.  0.
   193  1.92  0.  0.
   194  1.93  0.  0.
   195  1.94  0.  0.
   196  1.95  0.  0.
   197  1.96  0.  0.
   198  1.97  0.  0.
   199  1.98  0.  0.
   200  1.99  0.  0.
   201  2.00  0.  0.
   202  2.01  0.  0.
   203  2.02  0.  0.
   204  2.03  0.  0.
   205  2.04  0.  0.
   206  2.05  0.  0.
   207  2.06  0.  0.
   208  2.07  0.  0.
   209  2.08  0.  0.
   210  2.09  0.  0.
   211  2.10  0.  0.
   212  2.11  0.  0.
   213  2.12  0.  0.
   214  2.13  0.  0.
   215  2.14  0.  0.
   216  2.15  0.  0.
   217  2.16  0.  0.
   218  2.17  0.  0.
   219  2.18  0.  0.
   220  2.19  0.  0.
   221  2.20  0.  0.
   222  2.21  0.  0.
   223  2.22  0.  0.
   224  2.23  0.  0.
   225  2.24  0.  0.
   226  2.25  0.  0.
   227  2.26  0.  0.
   228  2.27  0.  0.
   229  2.28  0.  0.
   230  2.29  0.  0.
   231  2.30  0.  0.
   232  2.31  0.  0.
   233  2.32  0.  0.
   234  2.33  0.  0.
   235  2.34  0.  0.
   236  2.35  0.  0.
   237  2.36  0.  0.
   238  2.37  0.  0.
   239  2.38  0.  0.
   240  2.39  0.  0.
   241  2.40  0.  0.
   242  2.41  0.  0.
   243  2.42  0.  0.
   244  2.43  0.  0.
   245  2.44  0.  0.
   246  2.45  0.  0.
   247  2.46  0.  0.
   248  2.47  0.  0.
   249  2.48  0.  0.
   250  2.49  0.  0.
   251  2.50  0.  0.
   252  2.51  0.  0.
   253  2.52  0.  0.
   254  2.53  0.  0.
   255  2.54  0.  0.
   256  2.55  0.  0.
   257  2.56  0.  0.
   258  2.57  0.  0.
   259  2.58  0.  0.
   260  2.59  0.  0.
   261  2.60  0.  0.
   262  2.61  0.  0.
   263  2.62  0.  0.
   264  2.63  0.  0.
   265  2.64  0.  0.
   266  2.65  0.  0.
   267  2.66  0.  0.
   268  2.67  0.  0.
   269  2.68  0.  0.
   270  2.69  0.  0.
   271  2.70  0.  0.
   272  2.71  0.  0.
   273  2.72  0.  0.
   274  2.73  0.  0.
   275  2.74  0.  0.
   276  2.75  0.  0.
   277  2.76  0.  0.
   278  2.77  0.  0.
   279  2.78  0.  0.
   280  2.79  0.  0.
   281  2.80  0.  0.
   282  2.81  0.  0.
   283  2.82  0.  0.
   284  2.83  0.  0.
   285  2.84  0.  0.
   286  2.85  0.  0.
   287  2.86  0.  0.
   288  2.87  0.  0.
   289  2.88  0.  0.
   290  2.89  0.  0.
   291  2.90  0.  0.
   292  2.91  0.  0.
   293  2.92  0.  0.
   294  2.93  0.  0.
   295  2.94  0.  0.
   296  2.95  0.  0.
   297  2.96  0.  0.
   298  2.97  0.  0.
   299  2.98  0.  0.
   300  2.99  0.  0.
   301  3.00  0.  0.
   302  3.01  0.  0.
   303  3.02  0.  0.
   304  3.03  0.  0.
   305  3.04  0.  0.
   306  3.05  0.  0.
   307  3.06  0.  0.
   308  3.07  0.  0.
   309  3.08  0.  0.
   310  3.09  0.  0.
   311  3.10  0.  0.
   312  3.11  0.  0.
   313  3.12  0.  0.
   314  3.13  0.  0.
   315  3.14  0.  0.
   316  3.15  0.  0.
   317  3.16  0.  0.
   318  3.17  0.  0.
   319  3.18  0.  0.
   320  3.19  0.  0.
   321  3.20  0.  0.
   322  3.21  0.  0.
   323  3.22  0.  0.
   324  3.23  0.  0.
   325  3.24  0.  0.
   326  3.25  0.  0.
   327  3.26  0.  0.
   328  3.27  0.  0.
   329  3.28  0.  0.
   330  3.29  0.  0.
   331  3.30  0.  0.
   332  3.31  0.  0.
   333  3.32  0.  0.
   334  3.33  0.  0.
   335  3.34  0.  0.
   336  3.35  0.  0.
   337  3.36  0.  0.
   338  3.37  0.  0.
   339  3.38  0.  0.
   340  3.39  0.  0.
   341  3.40  0.  0.
   342  3.41  0.  0.
   343  3.42  0.  0.
   344  3.43  0.  0.
   345  3.44  0.  0.
   346  3.45  0.  0.
   347  3.46  0.  0.
   348  3.47  0.  0.
   349  3.48  0.  0.
   350  3.49  0.  0.
   351  3.50  0.  0.
   352  3.51  0.  0.
   353  3.52  0.  0.
   354  3.53  0.  0.
   355  3.54  0.  0.
   356  3.55  0.  0.
   357  3.56  0.  0.
   358  3.57  0.  0.
   359  3.58  0.  0.
   360  3.59  0.  0.
   361  3.60  0.  0.
   362  3.61  0.  0.
   363  3.62  0.  0.
   364  3.63  0.  0.
   365  3.64  0.  0.
   366  3.65  0.  0.
   367  3.66  0.  0.
   368  3.67  0.  0.
   369  3.68  0.  0.
   370  3.69  0.  0.
   371  3.70  0.  0.
   372  3.71  0.  0.
   373  3.72  0.  0.
   374  3.73  0.  0.
   375  3.74  0.  0.
   376  3.75  0.  0.
   377  3.76  0.  0.
   378  3.77  0.  0.
   379  3.78  0.  0.
   380  3.79  0.  0.
   381  3.80  0.  0.
   382  3.81  0.  0.
   383  3.82  0.  0.
   384  3.83  0.  0.
   385  3.84  0.  0.
   386  3.85  0.  0.
   387  3.86  0.  0.
   388  3.87  0.  0.
   389  3.88  0.  0.
   390  3.89  0.  0.
   391  3.90  0.  0.
   392  3.91  0.  0.
   393  3.92  0.  0.
   394  3.93  0.  0.
   395  3.94  0.  0.
   396  3.95  0.  0.
   397  3.96  0.  0.
   398  3.97  0.  0.
   399  3.98  0.  0.
   400  3.99  0.  0.
   401  4.00  0.  0.
   402  4.01  0.  0.
   403  4.02  0.  0.
   404  4.03  0.  0.
   405  4.04  0.  0.
   406  4.05  0.  0.
   407  4.06  0.  0.
   408  4.07  0.  0.
   409  4.08  0.  0.
   410  4.09  0.  0.
   411  4.10  0.  0.
   412  4.11  0.  0.
   413  4.12  0.  0.
   414  4.13  0.  0.
   415  4.14  0.  0.
   416  4.15  0.  0.
   417  4.16  0.  0.
   418  4.17  0.  0.
   419  4.18  0.  0.
   420  4.19  0.  0.
   421  4.20  0.  0.
   422  4.21  0.  0.
   423  4.22  0.  0.
   424  4.23  0.  0.
   425  4.24  0.  0.
   426  4.25  0.  0.
   427  4.26  0.  0.
   428  4.27  0.  0.
   429  4.28  0.  0.
   430  4.29  0.  0.
   431  4.30  0.  0.
   432  4.31  0.  0.
   433  4.32  0.  0.
   434  4.33  0.  0.
   435  4.34  0.  0.
   436  4.35  0.  0.
   437  4.36  0.  0.
   438  4.37  0.  0.
   439  4.38  0.  0.
   440  4.39  0.  0.
   441  4.40  0.  0.
   442  4.41  0.  0.
   443  4.42  0.  0.
   444  4.43  0.  0.
   445  4.44  0.  0.
   446  4.45  0.  0.
   447  4.46  0.  0.
   448  4.47  0.  0.
   449  4.48  0.  0.
   450  4.49  0.  0.
   451  4.50  0.  0.
   452  4.51  0.  0.
   453  4.52  0.  0.
   454  4.53  0.  0.
   455  4.54  0.  0.
   456  4.55  0.  0.
   457  4.56  0.  0.
   458  4.57  0.  0.
   459  4.58  0.  0.
   460  4.59  0.  0.
   461  4.60  0.  0.
   462  4.61  0.  0.
   463  4.62  0.  0.
   464  4.63  0.  0.
   465  4.64  0.  0.
   466  4.65  0.  0.
   467  4.66  0.  0.
   468  4.67  0.  0.
   469  4.68  0.  0.
   470  4.69  0.  0.
   471  4.70  0.  0.
   472  4.71  0.  0.
   473  4.72  0.  0.
   474  4.73  0.  0.
   475  4.74  0.  0.
   476  4.75  0.  0.
   477  4.76  0.  0.
   478  4.77  0.  0.
   479  4.78  0.  0.
   480  4.79  0.  0.
   481  4.80  0.  0.
   482  4.81  0.  0.
   483  4.82  0.  0.
   484  4.83  0.  0.
   485  4.84  0.  0.
   486  4.85  0.  0.
   487  4.86  0.  0.
   488  4.87  0.  0.
   489  4.88  0.  0.
   490  4.89  0.  0.
   491  4.90  0.  0.
   492  4.91  0.  0.
   493  4.92  0.  0.
   494  4.93  0.  0.
   495  4.94  0.  0.
   496  4.95  0.  0.
   497  4.96  0.  0.
   498  4.97  0.  0.
   499  4.98  0.  0.
   500  4.99  0.  0.
   501  5.00  0.  0.
   502  5.01  0.  0.
   503  5.02  0.  0.
   504  5.03  0.  0.
   505  5.04  0.  0.
   506  5.05  0.  0.
   507  5.06  0.  0.
   508  5.07  0.  0.
   509  5.08  0.  0.
   510  5.09  0.  0.
   511  5.10  0.  0.
   512  5.11  0.  0.
   513  5.12  0.  0.
   514  5.13  0.  0.
   515  5.14  0.  0.
   516  5.15  0.  0.
   517  5.16  0.  0.
   518  5.17  0.  0.
   519  5.18  0.  0.
   520  5.19  0.  0.
   521  5.20  0.  0.
   522  5.21  0.  0.
   523  5.22  0.  0.
   524  5.23  0.  0.
   525  5.24  0.  0.
   526  5.25  0.  0.
   527  5.26  0.  0.
   528  5.27  0.  0.
   529  5.28  0.  0.
   530  5.29  0.  0.
   531  5.30  0.  0.
   532  5.31  0.  0.
   533  5.32  0.  0.
   534  5.33  0.  0.
   535  5.34  0.  0.
   536  5.35  0.  0.
   537  5.36  0.  0.
   538  5.37  0.  0.
   539  5.38  0.  0.
   540  5.39  0.  0.
   541  5.40  0.  0.
   542  5.41  0.  0.
   543  5.42  0.  0.
   544  5.43  0.  0.
   545  5.44  0.  0.
   546  5.45  0.  0.
   547  5.46  0.  0.
   548  5.47  0.  0.
   549  5.48  0.  0.
   550  5.49  0.  0.
   551  5.50  0.  0.
   552  5.51  0.  0.
   553  5.52  0.  0.
   554  5.53  0.  0.
   555  5.54  0.  0.
   556  5.55  0.  0.
   557  5.56  0.  0.
   558  5.57  0.  0.
   559  5.58  0.  0.
   560  5.59  0.  0.
   561  5.60  0.  0.
   562  5.61  0.  0.
   563  5.62  0.  0.
   564  5.63  0.  0.
   565  5.64  0.  0.
   566  5.65  0.  0.
   567  5.66  0.  0.
   568  5.67  0.  0.
   569  5.68  0.  0.
   570  5.69  0.  0.
   571  5.70  0.  0.
   572  5.71  0.  0.
   573  5.72  0.  0.
   574  5.73  0.  0.
   575  5.74  0.  0.
   576  5.75  0.  0.
   577  5.76  0.  0.
   578  5.77  0.  0.
   579  5.78  0.  0.
   580  5.79  0.  0.
   581  5.80  0.  0.
   582  5.81  0.  0.
   583  5.82  0.  0.
   584  5.83  0.  0.
   585  5.84  0.  0.
   586  5.85  0.  0.
   587  5.86  0.  0.
   588  5.87  0.  0.
   589  5.88  0.  0.
   590  5.89  0.  0.
   591  5.90  0.  0.
   592  5.91  0.  0.
   593  5.92  0.  0.
   594  5.93  0.  0.
   595  5.94  0.  0.
   596  5.95  0.  0.
   597  5.96  0.  0.
   598  5.97  0.  0.
   599  5.98  0.  0.
   600  5.99  0.  0.
   1                        -2.5344455914584E+00 -1.9627539674741E+00
     1  0.0000000000000E+00 -1.2301399385239E-08  3.3141311084339E-09
     2  1.0000000000000E-02 -1.2780936502384E-03 -2.0509675738135E-03
     3  2.0000000000000E-02 -5.0816449693637E-03 -8.1911610310325E-03
     4  3.0000000000000E-02 -1.1318934465005E-02 -1.8382445762860E-02
     5  4.0000000000000E-02 -1.9838654012846E-02 -3.2561243423897E-02
     6  5.0000000000000E-02 -3.0432219082224E-02 -5.0638508082018E-02
     7  6.0000000000000E-02 -4.2836957591919E-02 -7.2499706937402E-02
     8  7.0000000000000E-02 -5.6740128011389E-02 -9.8004819297168E-02
     9  8.0000000000000E-02 -7.1783707021291E-02 -1.2698837080617E-01
    10  9.0000000000000E-02 -8.7569875648087E-02 -1.5925952281721E-01
    11  1.0000000000000E-01 -1.0366712246646E-01 -1.9460223915310E-01
    12  1.1000000000000E-01 -1.1961687337670E-01 -2.3277555429983E-01
    13  1.2000000000000E-01 -1.3494054975380E-01 -2.7351396821337E-01
    14  1.3000000000000E-01 -1.4914695054943E-01 -3.1652799337457E-01
    15  1.4000000000000E-01 -1.6173984930537E-01 -3.6150487945327E-01
    16  1.5000000000000E-01 -1.7222569408045E-01 -4.0810953992267E-01
    17  1.6000000000000E-01 -1.8012129704962E-01 -4.5598570319372E-01
    18  1.7000000000000E-01 -1.8496140102645E-01 -5.0475730832624E-01
    19  1.8000000000000E-01 -1.8630601237973E-01 -5.5403016214517E-01
    20  1.9000000000000E-01 -1.8374739373061E-01 -6.0339387068843E-01
    21  2.0000000000000E-01 -1.7691661536371E-01 -6.5242405339492E-01
    22  2.1000000000000E-01 -1.6548957137814E-01 -7.0068484337974E-01
    23  2.2000000000000E-01 -1.4919237512638E-01 -7.4773167162550E-01
    24  2.3000000000000E-01 -1.2780605830150E-01 -7.9311432704336E-01
    25  2.4000000000000E-01 -1.0117050897626E-01 -8.3638027823555E-01
    26  2.5000000000000E-01 -6.9187595787761E-02 -8.7707823654444E-01
    27  2.6000000000000E-01 -3.1823438102391E-02 -9.1476193372806E-01
    28  2.7000000000000E-01  1.0890204826380E-02 -9.4899408149270E-01
    29  2.8000000000000E-01  5.8855439201324E-02 -9.7935047427447E-01
    30  2.9000000000000E-01  1.1190863643999E-01 -1.0054241912286E+00
    31  3.0000000000000E-01  1.6982171382664E-01 -1.0268298484893E+00
    32  3.1000000000000E-01  2.3230426947202E-01 -1.0432078485308E+00
    33  3.2000000000000E-01  2.9900653252584E-01 -1.0542285700034E+00
    34  3.3000000000000E-01  3.6952307792131E-01 -1.0595964388492E+00
    35  3.4000000000000E-01  4.4339724426507E-01 -1.0590538198966E+00
    36  3.5000000000000E-01  5.2012618399488E-01 -1.0523846675753E+00
    37  3.6000000000000E-01  5.9916646676397E-01 -1.0394178749249E+00
    38  3.7000000000000E-01  6.7994015030068E-01 -1.0200302617217E+00
    39  3.8000000000000E-01  7.6184122783193E-01 -9.9414914533077E-01
    40  3.9000000000000E-01  8.4424235761393E-01 -9.6175444177690E-01
    41  4.0000000000000E-01  9.2650177821496E-01 -9.2288024947809E-01
    42  4.1000000000000E-01  1.0079703129416E+00 -8.7761587403250E-01
    43  4.2000000000000E-01  1.0879983681539E+00 -8.2610625929548E-01
    44  4.3000000000000E-01  1.1659428331083E+00 -7.6855179761593E-01
    45  4.4000000000000E-01  1.2411737932960E+00 -7.0520750038064E-01
    46  4.5000000000000E-01  1.3130809748807E+00 -6.3638151878713E-01
    47  4.6000000000000E-01  1.3810798446174E+00 -5.6243301385755E-01
    48  4.7000000000000E-01  1.4446172973844E+00 -4.8376938393542E-01
    49  4.8000000000000E-01  1.5031768719670E+00 -4.0084286708056E-01
    50  4.9000000000000E-01  1.5562834447945E+00 -3.1414654470171E-01
    51  5.0000000000000E-01  1.6035073607190E+00 -2.2420978124416E-01
    52  5.1000000000000E-01  1.6444679694085E+00 -1.3159314259265E-01
    53  5.2000000000000E-01  1.6788365452918E+00 -3.6882842877658E-02
    54  5.3000000000000E-01  1.7063385780080E+00  5.9315224579268E-02
    55  5.4000000000000E-01  1.7267554287870E+00  1.5638181152494E-01
    56  5.5000000000000E-01  1.7399253559304E+00  2.5369092991247E-01
    57  5.6000000000000E-01  1.7457439194046E+00  3.5061669126978E-01
    58  5.7000000000000E-01  1.7441637803789E+00  4.4654030274482E-01
    59  5.8000000000000E-01  1.7351939162222E+00  5.4085715282124E-01
    60  5.9000000000000E-01  1.7188982749513E+00  6.3298392170146E-01
    61  6.0000000000000E-01  1.6953938953591E+00  7.2236565478436E-01
    62  6.1000000000000E-01  1.6648485200465E+00  8.0848274245629E-01
    63  6.2000000000000E-01  1.6274777283691E+00  8.9085775547197E-01
    64  6.3000000000000E-01  1.5835416149621E+00  9.6906209239653E-01
    65  6.4000000000000E-01  1.5333410371210E+00  1.0427224037580E+00
    66  6.5000000000000E-01  1.4772134510330E+00  1.1115267665378E+00
    67  6.6000000000000E-01  1.4155283528150E+00  1.1752305922073E+00
    68  6.7000000000000E-01  1.3486823357474E+00  1.2336622616373E+00
    69  6.8000000000000E-01  1.2770937700565E+00  1.2867284899763E+00
    70  6.9000000000000E-01  1.2011965681772E+00  1.3344166366604E+00
    71  7.0000000000000E-01  1.1214293822418E+00  1.3767698999251E+00
    72  7.1000000000000E-01  1.0382280054412E+00  1.4138598206539E+00
    73  7.2000000000000E-01  9.5202439902489E-01  1.4457814486004E+00
    74  7.3000000000000E-01  8.6324653450306E-01  1.4726504687825E+00
    75  7.4000000000000E-01  7.7231847999611E-01  1.4946001506015E+00
    76  7.5000000000000E-01  6.7966067619933E-01  1.5117781805244E+00
    77  7.6000000000000E-01  5.8569034381578E-01  1.5243434437847E+00
    78  7.7000000000000E-01  4.9082196165652E-01  1.5324628213476E+00
    79  7.8000000000000E-01  3.9546775356232E-01  1.5363080679727E+00
    80  7.9000000000000E-01  3.0003812285124E-01  1.5360528354081E+00
    81  8.0000000000000E-01  2.0494197512838E-01  1.5318699015778E+00
    82  8.1000000000000E-01  1.1058687396067E-01  1.5239286621483E+00
    83  8.2000000000000E-01  1.7378979041444E-02  1.5123929351478E+00
    84  8.3000000000000E-01 -7.4277277068072E-02  1.4974191224755E+00
    85  8.4000000000000E-01 -1.6397980987091E-01  1.4791547643119E+00
    86  8.5000000000000E-01 -2.5132982910010E-01  1.4577375137766E+00
    87  8.6000000000000E-01 -3.3593312815149E-01  1.4332945498549E+00
    88  8.7000000000000E-01 -4.1740172466811E-01  1.4059424368139E+00
    89  8.8000000000000E-01 -4.9535584961792E-01  1.3757874282616E+00
    90  8.9000000000000E-01 -5.6942627150786E-01  1.3429262038698E+00
    91  9.0000000000000E-01 -6.3925693176863E-01  1.3074470168070E+00
    92  9.1000000000000E-01 -7.0450785706799E-01  1.2694312203157E+00
    93  9.2000000000000E-01 -7.6485830460876E-01  1.2289551328288E+00
    94  9.3000000000000E-01 -8.2001008756738E-01  1.1860921927536E+00
    95  9.4000000000000E-01 -8.6969101994730E-01  1.1409153467411E+00
    96  9.5000000000000E-01 -9.1365841345148E-01  1.0934996090620E+00
    97  9.6000000000000E-01 -9.5170255369291E-01  1.0439247247898E+00
    98  9.7000000000000E-01 -9.8365007930221E-01  9.9227786594766E-01
    99  9.8000000000000E-01 -1.0093671853715E+00  9.3865628771334E-01
   100  9.9000000000000E-01 -1.0287625722691E+00  8.8316987125626E-01
   101  1.0000000000000E+00 -1.0417900622186E+00  8.2594348083077E-01
   102  1.0100000000000E+00 -1.0484508091541E+00  7.6711906537411E-01
   103  1.0200000000000E+00 -1.0487950322213E+00  7.0685743901960E-01
   104  1.0300000000000E+00 -1.0429232098127E+00  6.4533968057625E-01
   105  1.0400000000000E+00 -1.0309866791051E+00  5.8276809904005E-01
   106  1.0500000000000E+00 -1.0131875955618E+00  5.1936672047044E-01
   107  1.0600000000000E+00 -9.8977821761930E-01  4.5538126094290E-01
   108  1.0700000000000E+00 -9.6105949355927E-01  3.9107856056846E-01
   109  1.0800000000000E+00 -9.2737894020238E-01  3.2674546460203E-01
   110  1.0900000000000E+00 -8.8912781625123E-01  2.6268714918217E-01
   111  1.1000000000000E+00 -8.4673760662532E-01  1.9922490104999E-01
   112  1.1100000000000E+00 -8.0067584771610E-01  1.3669337246485E-01
   113  1.1200000000000E+00 -7.5144133680000E-01  7.5437344165977E-02
   114  1.1300000000000E+00 -6.9955878172578E-01  1.5808040487428E-02
   115  1.1400000000000E+00 -6.4557295901524E-01 -4.1840948751742E-02
   116  1.1500000000000E+00 -5.9004245960448E-01 -9.7158075254786E-02
   117  1.1600000000000E+00 -5.3353239509831E-01 -1.4979968665062E-01
   118  1.1700000000000E+00 -4.7661444507856E-01 -1.9942346218807E-01
   119  1.1800000000000E+00 -4.1978456034994E-01 -2.4581843769693E-01
   120  1.1900000000000E+00 -3.6367228308783E-01 -2.8854895504462E-01
   121  1.2000000000000E+00 -3.0877601837499E-01 -3.2739238533181E-01
   122  1.2100000000000E+00 -2.5559851614336E-01 -3.6210447667070E-01
   123  1.2200000000000E+00 -2.0460528720061E-01 -3.9248298747359E-01
   124  1.2300000000000E+00 -1.5622325345175E-01 -4.1836407776156E-01
   125  1.2400000000000E+00 -1.1083488817524E-01 -4.3962671140231E-01
   126  1.2500000000000E+00 -6.8773490709036E-02 -4.5619567114401E-01
   127  1.2600000000000E+00 -3.0319171778028E-02 -4.6804397071831E-01
   128  1.2700000000000E+00  4.3043763872387E-03 -4.7519460286479E-01
   129  1.2800000000000E+00  3.4932263564077E-02 -4.7772157289880E-01
   130  1.2900000000000E+00  6.1459891044887E-02 -4.7575017938804E-01
   131  1.3000000000000E+00  8.3843514515238E-02 -4.6945651637305E-01
   132  1.3100000000000E+00  1.0209986343896E-01 -4.5906618507657E-01
   133  1.3200000000000E+00  1.1630481637178E-01 -4.4485221700637E-01