Na    ONCVPSP-4.0.1  r_core=   1.77096   2.20971
     11.0000      9.0000      230118    zatom,zion,pspd
     8       2   1     4   400     0    pspcod,pspxc,lmax,lloc,mmax,r2well
  3.99000000  0.00000000  0.00000000    rchrg fchrg qchrg
     2     2     0     0     0    nproj
     1     1           extension_switch
   0                         1.1127071749703E+00 -6.1930350734404E-01
     1  0.0000000000000E+00 -8.9401708258663E-11  3.9182018740647E-11
     2  1.0000000000000E-02  8.8564592522512E-02  2.4751032551746E-02
     3  2.0000000000000E-02  1.7682370752075E-01  4.9529104575244E-02
     4  3.0000000000000E-02  2.6447305208351E-01  7.4360982106143E-02
     5  4.0000000000000E-02  3.5121069748940E-01  9.9272885983247E-02
     6  5.0000000000000E-02  4.3673824873361E-01  1.2429022342854E-01
     7  6.0000000000000E-02  5.2076199903610E-01  1.4943732461357E-01
     8  7.0000000000000E-02  6.0299406443005E-01  1.7473718582815E-01
     9  8.0000000000000E-02  6.8315349361881E-01  2.0021122082825E-01
    10  9.0000000000000E-02  7.6096734840067E-01  2.2587902189125E-01
    11  1.0000000000000E-01  8.3617175009291E-01  2.5175813204929E-01
    12  1.1000000000000E-01  9.0851288753908E-01  2.7786382990504E-01
    13  1.2000000000000E-01  9.7774798245604E-01  3.0420892835967E-01
    14  1.3000000000000E-01  1.0436462080689E+00  3.3080358850012E-01
    15  1.4000000000000E-01  1.1059895571917E+00  3.5765514980317E-01
    16  1.5000000000000E-01  1.1645736561375E+00  3.8476797771680E-01
    17  1.6000000000000E-01  1.2192085210875E+00  4.1214332957670E-01
    18  1.7000000000000E-01  1.2697192538032E+00  4.3977923970679E-01
    19  1.8000000000000E-01  1.3159466738411E+00  4.6767042443950E-01
    20  1.9000000000000E-01  1.3577478847120E+00  4.9580820767320E-01
    21  2.0000000000000E-01  1.3949967717247E+00  5.2418046746314E-01
    22  2.1000000000000E-01  1.4275844295593E+00  5.5277160401753E-01
    23  2.2000000000000E-01  1.4554195179296E+00  5.8156252934429E-01
    24  2.3000000000000E-01  1.4784285440176E+00  6.1053067866586E-01
    25  2.4000000000000E-01  1.4965560706894E+00  6.3965004359124E-01
    26  2.5000000000000E-01  1.5097648498341E+00  6.6889122690629E-01
    27  2.6000000000000E-01  1.5180358805004E+00  6.9822151871559E-01
    28  2.7000000000000E-01  1.5213683918437E+00  7.2760499354422E-01
    29  2.8000000000000E-01  1.5197797512280E+00  7.5700262788413E-01
    30  2.9000000000000E-01  1.5133052981614E+00  7.8637243755010E-01
    31  3.0000000000000E-01  1.5019981050722E+00  8.1566963409427E-01
    32  3.1000000000000E-01  1.4859286662575E+00  8.4484679941677E-01
    33  3.2000000000000E-01  1.4651845166490E+00  8.7385407760375E-01
    34  3.3000000000000E-01  1.4398697823559E+00  9.0263938292399E-01
    35  3.4000000000000E-01  1.4101046652355E+00  9.3114862282138E-01
    36  3.5000000000000E-01  1.3760248640359E+00  9.5932593465399E-01
    37  3.6000000000000E-01  1.3377809349269E+00  9.8711393485119E-01
    38  3.7000000000000E-01  1.2955375944950E+00  1.0144539790890E+00
    39  3.8000000000000E-01  1.2494729685271E+00  1.0412864320219E+00
    40  3.9000000000000E-01  1.1997777901343E+00  1.0675509450536E+00
    41  4.0000000000000E-01  1.1466545509784E+00  1.0931867405878E+00
    42  4.1000000000000E-01  1.0903166095593E+00  1.1181329011604E+00
    43  4.2000000000000E-01  1.0309872606924E+00  1.1423286618323E+00
    44  4.3000000000000E-01  9.6889877046076E-01  1.1657137042035E+00
    45  4.4000000000000E-01  9.0429138105701E-01  1.1882284504048E+00
    46  4.5000000000000E-01  8.3741229004273E-01  1.2098143554242E+00
    47  4.6000000000000E-01  7.6851460864034E-01  1.2304141961410E+00
    48  4.7000000000000E-01  6.9785630373919E-01  1.2499723554616E+00
    49  4.8000000000000E-01  6.2569912834093E-01  1.2684350999836E+00
    50  4.9000000000000E-01  5.5230754518949E-01  1.2857508496570E+00
    51  5.0000000000000E-01  4.7794764832856E-01  1.3018704379615E+00
    52  5.1000000000000E-01  4.0288608730427E-01  1.3167473611759E+00
    53  5.2000000000000E-01  3.2738899868282E-01  1.3303380153887E+00
    54  5.3000000000000E-01  2.5172094948226E-01  1.3426019199657E+00
    55  5.4000000000000E-01  1.7614389702632E-01  1.3535019262825E+00
    56  5.5000000000000E-01  1.0091616961458E-01  1.3630044106094E+00
    57  5.6000000000000E-01  2.6291472269623E-02  1.3710794501412E+00
    58  5.7000000000000E-01 -4.7482078330755E-02  1.3777009812575E+00
    59  5.8000000000000E-01 -1.2016288580101E-01  1.3828469392105E+00
    60  5.9000000000000E-01 -1.9151676912834E-01  1.3864993785450E+00
    61  6.0000000000000E-01 -2.6131781734613E-01  1.3886445736715E+00
    62  6.1000000000000E-01 -3.2934920048121E-01  1.3892730991269E+00
    63  6.2000000000000E-01 -3.9540393369082E-01  1.3883798891803E+00
    64  6.3000000000000E-01 -4.5928559175318E-01  1.3859642765589E+00
    65  6.4000000000000E-01 -5.2080897133323E-01  1.3820300101913E+00
    66  6.5000000000000E-01 -5.7980069871419E-01  1.3765852519856E+00
    67  6.6000000000000E-01 -6.3609978096055E-01  1.3696425527816E+00
    68  6.7000000000000E-01 -6.8955809876056E-01  1.3612188077320E+00
    69  6.8000000000000E-01 -7.4004083948268E-01  1.3513351914867E+00
    70  6.9000000000000E-01 -7.8742686927000E-01  1.3400170736648E+00
    71  7.0000000000000E-01 -8.3160904328679E-01  1.3272939152091E+00
    72  7.1000000000000E-01 -8.7249445352149E-01  1.3131991463236E+00
    73  7.2000000000000E-01 -9.1000461383785E-01  1.2977700267930E+00
    74  7.3000000000000E-01 -9.4407558224964E-01  1.2810474895769E+00
    75  7.4000000000000E-01 -9.7465802067199E-01  1.2630759686621E+00
    76  7.5000000000000E-01 -1.0017171926732E+00  1.2439032122333E+00
    77  7.6000000000000E-01 -1.0252329000134E+00  1.2235800823000E+00
    78  7.7000000000000E-01 -1.0451993590058E+00  1.2021603419825E+00
    79  7.8000000000000E-01 -1.0616250179802E+00  1.1797004317160E+00
    80  7.9000000000000E-01 -1.0745323173502E+00  1.1562592356862E+00
    81  8.0000000000000E-01 -1.0839573940026E+00  1.1318978398458E+00
    82  8.1000000000000E-01 -1.0899497319210E+00  1.1066792828993E+00
    83  8.2000000000000E-01 -1.0925717611401E+00  1.0806683016605E+00
    84  8.3000000000000E-01 -1.0918984072866E+00  1.0539310722094E+00
    85  8.4000000000000E-01 -1.0880165941101E+00  1.0265349482720E+00
    86  8.5000000000000E-01 -1.0810247015338E+00  9.9854819825132E-01
    87  8.6000000000000E-01 -1.0710319818615E+00  9.7003974231821E-01
    88  8.7000000000000E-01 -1.0581579368635E+00  9.4107889095368E-01
    89  8.8000000000000E-01 -1.0425316585332E+00  9.1173508630286E-01
    90  8.9000000000000E-01 -1.0242911363525E+00  8.8207764766232E-01
    91  9.0000000000000E-01 -1.0035825339313E+00  8.5217552237663E-01
    92  9.1000000000000E-01 -9.8055943789345E-01  8.2209704336586E-01
    93  9.2000000000000E-01 -9.5538208186852E-01  7.9190969444474E-01
    94  9.3000000000000E-01 -9.2821654841901E-01  7.6167988452617E-01
    95  9.4000000000000E-01 -8.9923395167989E-01  7.3147273172778E-01
    96  9.5000000000000E-01 -8.6860960342055E-01  7.0135185832044E-01
    97  9.6000000000000E-01 -8.3652216515380E-01  6.7137919737263E-01
    98  9.7000000000000E-01 -8.0315278881437E-01  6.4161481185522E-01
    99  9.8000000000000E-01 -7.6868424841336E-01  6.1211672687804E-01
   100  9.9000000000000E-01 -7.3330006494371E-01  5.8294077563314E-01
   101  1.0000000000000E+00 -6.9718362666888E-01  5.5414045952048E-01
   102  1.0100000000000E+00 -6.6051730677132E-01  5.2576682283152E-01
   103  1.0200000000000E+00 -6.2348158017276E-01  4.9786834226369E-01
   104  1.0300000000000E+00 -5.8625414116423E-01  4.7049083143680E-01
   105  1.0400000000000E+00 -5.4900902330302E-01  4.4367736048030E-01
   106  1.0500000000000E+00 -5.1191572284727E-01  4.1746819065914E-01
   107  1.0600000000000E+00 -4.7513832680807E-01  3.9190072390661E-01
   108  1.0700000000000E+00 -4.3883464650628E-01  3.6700946703540E-01
   109  1.0800000000000E+00 -4.0315535732668E-01  3.4282601030393E-01
   110  1.0900000000000E+00 -3.6824314516904E-01  3.1937901992425E-01
   111  1.1000000000000E+00 -3.3423185990431E-01  2.9669424401159E-01
   112  1.1100000000000E+00 -3.0124567595635E-01  2.7479453139338E-01
   113  1.1200000000000E+00 -2.6939825994744E-01  2.5369986261944E-01
   114  1.1300000000000E+00 -2.3879194516922E-01  2.3342739244370E-01
   115  1.1400000000000E+00 -2.0951691247328E-01  2.1399150298322E-01
   116  1.1500000000000E+00 -1.8165037701563E-01  1.9540386670166E-01
   117  1.1600000000000E+00 -1.5525578014115E-01  1.7767351831298E-01
   118  1.1700000000000E+00 -1.3038198555601E-01  1.6080693465652E-01
   119  1.1800000000000E+00 -1.0706247869361E-01  1.4480812158111E-01
   120  1.1900000000000E+00 -8.5314566951603E-02  1.2967870703847E-01
   121  1.2000000000000E+00 -6.5138593443316E-02  1.1541803678418E-01
   122  1.2100000000000E+00 -4.6517552231403E-02  1.0202319282160E-01
   123  1.2200000000000E+00 -2.9421993195366E-02  8.9488022559936E-02
   124  1.2300000000000E+00 -1.3816167496459E-02  7.7802222523118E-02
   125  1.2400000000000E+00  3.4083151373327E-04  6.6951600608190E-02
   126  1.2500000000000E+00  1.3094523501491E-02  5.6918458189859E-02
   127  1.2600000000000E+00  2.4494509060307E-02  4.7681963459863E-02
   128  1.2700000000000E+00  3.4593947201189E-02  3.9218513668897E-02
   129  1.2800000000000E+00  4.3449044289115E-02  3.1502085414609E-02
   130  1.2900000000000E+00  5.1118556537959E-02  2.4504572233621E-02
   131  1.3000000000000E+00  5.7663307798071E-02  1.8196108773944E-02
   132  1.3100000000000E+00  6.3145724255947E-02  1.2545380902260E-02
   133  1.3200000000000E+00  6.7629387543700E-02  7.5199211796178E-03
   134  1.3300000000000E+00  7.1178607625908E-02  3.0863892201596E-03
   135  1.3400000000000E+00  7.3858016697330E-02 -7.8916347218690E-04
   136  1.3500000000000E+00  7.5732185184740E-02 -4.1410445128452E-03
   137  1.3600000000000E+00  7.6865260801724E-02 -7.0036877345026E-03
   138  1.3700000000000E+00  7.7320631457835E-02 -9.4114365363847E-03
   139  1.3800000000000E+00  7.7160612673336E-02 -1.1398343568155E-02
   140  1.3900000000000E+00  7.6446159999285E-02 -1.2997986753581E-02
   141  1.4000000000000E+00  7.5236606790842E-02 -1.4243301582756E-02
   142  1.4100000000000E+00  7.3589427529045E-02 -1.5166429526926E-02
   143  1.4200000000000E+00  7.1560026736653E-02 -1.5798582358089E-02
   144  1.4300000000000E+00  6.9201553384459E-02 -1.6169922085789E-02
   145  1.4400000000000E+00  6.6564740539822E-02 -1.6309456157191E-02
   146  1.4500000000000E+00  6.3697769867275E-02 -1.6244947503056E-02
   147  1.4600000000000E+00  6.0646160454650E-02 -1.6002838952454E-02
   148  1.4700000000000E+00  5.7452681307188E-02 -1.5608191483137E-02
   149  1.4800000000000E+00  5.4157286727491E-02 -1.5084635722517E-02
   150  1.4900000000000E+00  5.0797073681916E-02 -1.4454336066452E-02
   151  1.5000000000000E+00  4.7406260143744E-02 -1.3737966739778E-02
   152  1.5100000000000E+00  4.4016183303423E-02 -1.2954699084022E-02
   153  1.5200000000000E+00  4.0655316442771E-02 -1.2122199323662E-02
   154  1.5300000000000E+00  3.7349303188236E-02 -1.1256636033491E-02
   155  1.5400000000000E+00  3.4121007785450E-02 -1.0372696505643E-02
   156  1.5500000000000E+00  3.0990579975217E-02 -9.4836111959039E-03
   157  1.5600000000000E+00  2.7975532999392E-02 -8.6011854152540E-03
   158  1.5700000000000E+00  2.5090833224714E-02 -7.7358374237747E-03
   159  1.5800000000000E+00  2.2348999843254E-02 -6.8966420807628E-03
   160  1.5900000000000E+00  1.9760213089898E-02 -6.0913792062727E-03
   161  1.6000000000000E+00  1.7332429410329E-02 -5.3265858160484E-03
   162  1.6100000000000E+00  1.5071502017411E-02 -4.6076114032741E-03
   163  1.6200000000000E+00  1.2981305289111E-02 -3.9386754570291E-03
   164  1.6300000000000E+00  1.1063861487364E-02 -3.3229264283031E-03
   165  1.6400000000000E+00  9.3194683144083E-03 -2.7625013801111E-03
   166  1.6500000000000E+00  7.7468284123580E-03 -2.2585854772704E-03
   167  1.6600000000000E+00  6.3431532700560E-03 -1.8114716870503E-03
   168  1.6700000000000E+00  5.1043457470625E-03 -1.4206162736398E-03
   169  1.6800000000000E+00  4.0250550083070E-03 -1.0846935432701E-03
   170  1.6900000000000E+00  3.0949350236767E-03 -8.0182871401435E-04
   171  1.7000000000000E+00  2.2998380360171E-03 -5.6965330726843E-04
   172  1.7100000000000E+00  1.6358365797343E-03 -3.8469792081952E-04
   173  1.7200000000000E+00  1.0974706701268E-03 -2.4286702527441E-04
   174  1.7300000000000E+00  6.7781231626424E-04 -1.3949866700099E-04
   175  1.7400000000000E+00  3.6852572300843E-04 -6.9413311944942E-05
   176  1.7500000000000E+00  1.5991053418378E-04 -2.6947173906015E-05
   177  1.7600000000000E+00  4.1102186011349E-05 -5.9921905971039E-06
   178  1.7700000000000E+00  1.0855764782119E-06 -1.2597405378691E-07
   179  1.7800000000000E+00 -5.4005496180353E-07  5.6807326811025E-08
   180  1.7900000000000E+00  2.9802598134515E-07 -3.7037412209449E-08
   181  1.80 -0.  0.
   182  1.81 -0.  0.
   183  1.82  0.  0.
   184  1.83  0.  0.
   185  1.84  0.  0.
   186  1.85  0.  0.
   187  1.86  0.  0.
   188  1.87  0.  0.
   189  1.88  0.  0.
   190  1.89  0.  0.
   191  1.90  0.  0.
   192  1.91  0.  0.
   193  1.92  0.  0.
   194  1.93  0.  0.
   195  1.94  0.  0.
   196  1.95  0.  0.
   197  1.96  0.  0.
   198  1.97  0.  0.
   199  1.98  0.  0.
   200  1.99  0.  0.
   201  2.00  0.  0.
   202  2.01  0.  0.
   203  2.02  0.  0.
   204  2.03  0.  0.
   205  2.04  0.  0.
   206  2.05  0.  0.
   207  2.06  0.  0.
   208  2.07  0.  0.
   209  2.08  0.  0.
   210  2.09  0.  0.
   211  2.10  0.  0.
   212  2.11  0.  0.
   213  2.12  0.  0.
   214  2.13  0.  0.
   215  2.14  0.  0.
   216  2.15  0.  0.
   217  2.16  0.  0.
   218  2.17  0.  0.
   219  2.18  0.  0.
   220  2.19  0.  0.
   221  2.20  0.  0.
   222  2.21  0.  0.
   223  2.22  0.  0.
   224  2.23  0.  0.
   225  2.24  0.  0.
   226  2.25  0.  0.
   227  2.26  0.  0.
   228  2.27  0.  0.
   229  2.28  0.  0.
   230  2.29  0.  0.
   231  2.30  0.  0.
   232  2.31  0.  0.
   233  2.32  0.  0.
   234  2.33  0.  0.
   235  2.34  0.  0.
   236  2.35  0.  0.
   237  2.36  0.  0.
   238  2.37  0.  0.
   239  2.38  0.  0.
   240  2.39  0.  0.
   241  2.40  0.  0.
   242  2.41  0.  0.
   243  2.42  0.  0.
   244  2.43  0.  0.
   245  2.44  0.  0.
   246  2.45  0.  0.
   247  2.46  0.  0.
   248  2.47  0.  0.
   249  2.48  0.  0.
   250  2.49  0.  0.
   251  2.50  0.  0.
   252  2.51  0.  0.
   253  2.52  0.  0.
   254  2.53  0.  0.
   255  2.54  0.  0.
   256  2.55  0.  0.
   257  2.56  0.  0.
   258  2.57  0.  0.
   259  2.58  0.  0.
   260  2.59  0.  0.
   261  2.60  0.  0.
   262  2.61  0.  0.
   263  2.62  0.  0.
   264  2.63  0.  0.
   265  2.64  0.  0.
   266  2.65  0.  0.
   267  2.66  0.  0.
   268  2.67  0.  0.
   269  2.68  0.  0.
   270  2.69  0.  0.
   271  2.70  0.  0.
   272  2.71  0.  0.
   273  2.72  0.  0.
   274  2.73  0.  0.
   275  2.74  0.  0.
   276  2.75  0.  0.
   277  2.76  0.  0.
   278  2.77  0.  0.
   279  2.78  0.  0.
   280  2.79  0.  0.
   281  2.80  0.  0.
   282  2.81  0.  0.
   283  2.82  0.  0.
   284  2.83  0.  0.
   285  2.84  0.  0.
   286  2.85  0.  0.
   287  2.86  0.  0.
   288  2.87  0.  0.
   289  2.88  0.  0.
   290  2.89  0.  0.
   291  2.90  0.  0.
   292  2.91  0.  0.
   293  2.92  0.  0.
   294  2.93  0.  0.
   295  2.94  0.  0.
   296  2.95  0.  0.
   297  2.96  0.  0.
   298  2.97  0.  0.
   299  2.98  0.  0.
   300  2.99  0.  0.
   301  3.00  0.  0.
   302  3.01  0.  0.
   303  3.02  0.  0.
   304  3.03  0.  0.
   305  3.04  0.  0.
   306  3.05  0.  0.
   307  3.06  0.  0.
   308  3.07  0.  0.
   309  3.08  0.  0.
   310  3.09  0.  0.
   311  3.10  0.  0.
   312  3.11  0.  0.
   313  3.12  0.  0.
   314  3.13  0.  0.
   315  3.14  0.  0.
   316  3.15  0.  0.
   317  3.16  0.  0.
   318  3.17  0.  0.
   319  3.18  0.  0.
   320  3.19  0.  0.
   321  3.20  0.  0.
   322  3.21  0.  0.
   323  3.22  0.  0.
   324  3.23  0.  0.
   325  3.24  0.  0.
   326  3.25  0.  0.
   327  3.26  0.  0.
   328  3.27  0.  0.
   329  3.28  0.  0.
   330  3.29  0.  0.
   331  3.30  0.  0.
   332  3.31  0.  0.
   333  3.32  0.  0.
   334  3.33  0.  0.
   335  3.34  0.  0.
   336  3.35  0.  0.
   337  3.36  0.  0.
   338  3.37  0.  0.
   339  3.38  0.  0.
   340  3.39  0.  0.
   341  3.40  0.  0.
   342  3.41  0.  0.
   343  3.42  0.  0.
   344  3.43  0.  0.
   345  3.44  0.  0.
   346  3.45  0.  0.
   347  3.46  0.  0.
   348  3.47  0.  0.
   349  3.48  0.  0.
   350  3.49  0.  0.
   351  3.50  0.  0.
   352  3.51  0.  0.
   353  3.52  0.  0.
   354  3.53  0.  0.
   355  3.54  0.  0.
   356  3.55  0.  0.
   357  3.56  0.  0.
   358  3.57  0.  0.
   359  3.58  0.  0.
   360  3.59  0.  0.
   361  3.60  0.  0.
   362  3.61  0.  0.
   363  3.62  0.  0.
   364  3.63  0.  0.
   365  3.64  0.  0.
   366  3.65  0.  0.
   367  3.66  0.  0.
   368  3.67  0.  0.
   369  3.68  0.  0.
   370  3.69  0.  0.
   371  3.70  0.  0.
   372  3.71  0.  0.
   373  3.72  0.  0.
   374  3.73  0.  0.
   375  3.74  0.  0.
   376  3.75  0.  0.
   377  3.76  0.  0.
   378  3.77  0.  0.
   379  3.78  0.  0.
   380  3.79  0.  0.
   381  3.80  0.  0.
   382  3.81  0.  0.
   383  3.82  0.  0.
   384  3.83  0.  0.
   385  3.84  0.  0.
   386  3.85  0.  0.
   387  3.86  0.  0.
   388  3.87  0.  0.
   389  3.88  0.  0.
   390  3.89  0.  0.
   391  3.90  0.  0.
   392  3.91  0.  0.
   393  3.92  0.  0.
   394  3.93  0.  0.
   395  3.94  0.  0.
   396  3.95  0.  0.
   397  3.96  0.  0.
   398  3.97  0.  0.
   399  3.98  0.  0.
   400  3.99  0.  0.
   1                        -3.1337852197408E+00 -1.6295879358908E+00
     1  0.0000000000000E+00  1.6283370485315E-11 -9.8333296366659E-11
     2  1.0000000000000E-02  5.4413687016484E-04 -2.6406784506951E-04
     3  2.0000000000000E-02  2.1757719419511E-03 -1.0546401883871E-03
     4  3.0000000000000E-02  4.8925796698114E-03 -2.3668318886852E-03
     5  4.0000000000000E-02  8.6906877041656E-03 -4.1925291066957E-03
     6  5.0000000000000E-02  1.3564682199816E-02 -6.5204312184479E-03
     7  6.0000000000000E-02  1.9507615185934E-02 -9.3361091331600E-03
     8  7.0000000000000E-02  2.6511013936500E-02 -1.2622079657631E-02
     9  8.0000000000000E-02  3.4564892263806E-02 -1.6357895450707E-02
    10  9.0000000000000E-02  4.3657763641937E-02 -2.0520250015720E-02
    11  1.0000000000000E-01  5.3776656052629E-02 -2.5083097086800E-02
    12  1.1000000000000E-01  6.4907128432356E-02 -3.0017783676877E-02
    13  1.2000000000000E-01  7.7033288587328E-02 -3.5293195971832E-02
    14  1.3000000000000E-01  9.0137812432334E-02 -4.0875917177090E-02
    15  1.4000000000000E-01  1.0420196440022E-01 -4.6730396350462E-02
    16  1.5000000000000E-01  1.1920561886135E-01 -5.2819127188782E-02
    17  1.6000000000000E-01  1.3512728238686E-01 -5.9102835676344E-02
    18  1.7000000000000E-01  1.5194411668591E-01 -6.5540675450624E-02
    19  1.8000000000000E-01  1.6963196204568E-01 -7.2090429695776E-02
    20  1.9000000000000E-01  1.8816536110347E-01 -7.8708718337295E-02
    21  2.0000000000000E-01  2.0751758278328E-01 -8.5351209282117E-02
    22  2.1000000000000E-01  2.2766064623439E-01 -9.1972832427916E-02
    23  2.2000000000000E-01  2.4856534461723E-01 -9.8527995153212E-02
    24  2.3000000000000E-01  2.7020126859172E-01 -1.0497079799673E-01
    25  2.4000000000000E-01  2.9253682937556E-01 -1.1125524923994E-01
    26  2.5000000000000E-01  3.1553928125513E-01 -1.1733547712123E-01
    27  2.6000000000000E-01  3.3917474344818E-01 -1.2316593843346E-01
    28  2.7000000000000E-01  3.6340822123753E-01 -1.2870162228882E-01
    29  2.8000000000000E-01  3.8820362631603E-01 -1.3389824787572E-01
    30  2.9000000000000E-01  4.1352379630726E-01 -1.3871245508168E-01
    31  3.0000000000000E-01  4.3933051345155E-01 -1.4310198691360E-01
    32  3.1000000000000E-01  4.6558452247480E-01 -1.4702586271233E-01
    33  3.2000000000000E-01  4.9224554768634E-01 -1.5044454123110E-01
    34  3.3000000000000E-01  5.1927230938255E-01 -1.5332007272713E-01
    35  3.4000000000000E-01  5.4662253966453E-01 -1.5561623930262E-01
    36  3.5000000000000E-01  5.7425299781059E-01 -1.5729868282305E-01
    37  3.6000000000000E-01  6.0211948537734E-01 -1.5833501983882E-01
    38  3.7000000000000E-01  6.3017686123641E-01 -1.5869494303855E-01
    39  3.8000000000000E-01  6.5837905678720E-01 -1.5835030886849E-01
    40  3.9000000000000E-01  6.8667909161876E-01 -1.5727521106207E-01
    41  4.0000000000000E-01  7.1502908992622E-01 -1.5544603993532E-01
    42  4.1000000000000E-01  7.4338029801774E-01 -1.5284152741720E-01
    43  4.2000000000000E-01  7.7168310327752E-01 -1.4944277789778E-01
    44  4.3000000000000E-01  7.9988705497785E-01 -1.4523328509063E-01
    45  4.4000000000000E-01  8.2794088735778E-01 -1.4019893521846E-01
    46  4.5000000000000E-01  8.5579254540872E-01 -1.3432799694090E-01
    47  4.6000000000000E-01  8.8338921382579E-01 -1.2761109855064E-01
    48  4.7000000000000E-01  9.1067734959935E-01 -1.2004119306719E-01
    49  4.8000000000000E-01  9.3760271873264E-01 -1.1161351195555E-01
    50  4.9000000000000E-01  9.6411043757822E-01 -1.0232550828946E-01
    51  5.0000000000000E-01  9.9014501928834E-01 -9.2176790264295E-02
    52  5.1000000000000E-01  1.0156504258717E+00 -8.1169046042688E-02
    53  5.2000000000000E-01  1.0405701263410E+00 -6.9305960985489E-02
    54  5.3000000000000E-01  1.0648471614214E+00 -5.6593128381098E-02
    55  5.4000000000000E-01  1.0884242152713E+00 -4.3037954836855E-02
    56  5.5000000000000E-01  1.1112436946416E+00 -2.8649561536395E-02
    57  5.6000000000000E-01  1.1332478158651E+00 -1.3438682596115E-02
    58  5.7000000000000E-01  1.1543787000350E+00  2.5824382282279E-03
    59  5.8000000000000E-01  1.1745784766813E+00  1.9400151227742E-02
    60  5.9000000000000E-01  1.1937893962083E+00  3.6999503568305E-02
    61  6.0000000000000E-01  1.2119539512974E+00  5.5364340027296E-02
    62  6.1000000000000E-01  1.2290150074178E+00  7.4477400436715E-02
    63  6.2000000000000E-01  1.2449159425191E+00  9.4320412672996E-02
    64  6.3000000000000E-01  1.2596007959063E+00  1.1487418008865E-01
    65  6.4000000000000E-01  1.2730144262204E+00  1.3611866234749E-01
    66  6.5000000000000E-01  1.2851026783614E+00  1.5803304870325E-01
    67  6.6000000000000E-01  1.2958125591066E+00  1.8059582285043E-01
    68  6.7000000000000E-01  1.3050924210827E+00  2.0378481857561E-01
    69  6.8000000000000E-01  1.3128921546602E+00  2.2757726554628E-01
    70  6.9000000000000E-01  1.3191633872367E+00  2.5194982469219E-01
    71  7.0000000000000E-01  1.3238596892844E+00  2.7687861275975E-01
    72  7.1000000000000E-01  1.3269367864322E+00  3.0233921575246E-01
    73  7.2000000000000E-01  1.3283527767592E+00  3.2830669110861E-01
    74  7.3000000000000E-01  1.3280683523759E+00  3.5475555861031E-01
    75  7.4000000000000E-01  1.3260470242738E+00  3.8165978016379E-01
    76  7.5000000000000E-01  1.3222553493329E+00  4.0899272873905E-01
    77  7.6000000000000E-01  1.3166631582852E+00  4.3672714690540E-01
    78  7.7000000000000E-01  1.3092437833491E+00  4.6483509554726E-01
    79  7.8000000000000E-01  1.2999742841698E+00  4.9328789348993E-01
    80  7.9000000000000E-01  1.2888356706290E+00  5.2205604890673E-01
    81  8.0000000000000E-01  1.2758131210220E+00  5.5110918351543E-01
    82  8.1000000000000E-01  1.2608961940450E+00  5.8041595070161E-01
    83  8.2000000000000E-01  1.2440790329863E+00  6.0994394882839E-01
    84  8.3000000000000E-01  1.2253605604802E+00  6.3965963110402E-01
    85  8.4000000000000E-01  1.2047446621563E+00  6.6952821348041E-01
    86  8.5000000000000E-01  1.1822403575011E+00  6.9951358214492E-01
    87  8.6000000000000E-01  1.1578619562492E+00  7.2957820224374E-01
    88  8.7000000000000E-01  1.1316291986293E+00  7.5968302953707E-01
    89  8.8000000000000E-01  1.1035673778184E+00  7.8978742673259E-01
    90  8.9000000000000E-01  1.0737074429911E+00  8.1984908627397E-01
    91  9.0000000000000E-01  1.0420860814056E+00  8.4982396137439E-01
    92  9.1000000000000E-01  1.0087457780338E+00  8.7966620708114E-01
    93  9.2000000000000E-01  9.7373485132089E-01  9.0932813313476E-01
    94  9.3000000000000E-01  9.3710746375627E-01  9.3876017034628E-01
    95  9.4000000000000E-01  8.9892360604424E-01  9.6791085215712E-01
    96  9.5000000000000E-01  8.5924905378424E-01  9.9672681296942E-01
    97  9.6000000000000E-01  8.1815529570544E-01  1.0251528047394E+00
    98  9.7000000000000E-01  7.7571943264695E-01  1.0531317332139E+00
    99  9.8000000000000E-01  7.3202404663336E-01  1.0806047150598E+00
   100  9.9000000000000E-01  6.8715703956504E-01  1.1075111569908E+00
   101  1.0000000000000E+00  6.4121144122164E-01  1.1337888578341E+00
   102  1.0100000000000E+00  5.9428518646553E-01  1.1593741343031E+00
   103  1.0200000000000E+00  5.4648086172772E-01  1.1842019710539E+00
   104  1.0300000000000E+00  4.9790542106067E-01  1.2082061954021E+00
   105  1.0400000000000E+00  4.4866987224975E-01  1.2313196768668E+00
   106  1.0500000000000E+00  3.9888893368550E-01  1.2534745514864E+00
   107  1.0600000000000E+00  3.4868066291148E-01  1.2746024706282E+00
   108  1.0700000000000E+00  2.9816605797522E-01  1.2946348737792E+00
   109  1.0800000000000E+00  2.4746863292162E-01  1.3135032845741E+00
   110  1.0900000000000E+00  1.9671396897663E-01  1.3311396290803E+00
   111  1.1000000000000E+00  1.4602924317298E-01  1.3474765751257E+00
   112  1.1100000000000E+00  9.5542736367560E-02  1.3624478912251E+00
   113  1.1200000000000E+00  4.5383322789329E-02  1.3759888234362E+00
   114  1.1300000000000E+00 -4.3200565633450E-03  1.3880364882578E+00
   115  1.1400000000000E+00 -5.3438934188761E-02  1.3985302794749E+00
   116  1.1500000000000E+00 -1.0184586736847E-01  1.4074122866608E+00
   117  1.1600000000000E+00 -1.4941499769076E-01  1.4146277228599E+00
   118  1.1700000000000E+00 -1.9602261590180E-01  1.4201253588133E+00
   119  1.1800000000000E+00 -2.4154772907097E-01  1.4238579609564E+00
   120  1.1900000000000E+00 -2.8587262700615E-01  1.4257827305138E+00
   121  1.2000000000000E+00 -3.2888344429637E-01  1.4258617378826E+00
   122  1.2100000000000E+00 -3.7047070371663E-01  1.4240622689267E+00
   123  1.2200000000000E+00 -4.1052968133169E-01  1.4203560985188E+00
   124  1.2300000000000E+00 -4.4896065561930E-01  1.4147186026728E+00
   125  1.2400000000000E+00 -4.8566924926094E-01  1.4071289555473E+00
   126  1.2500000000000E+00 -5.2056677439410E-01  1.3975704468694E+00
   127  1.2600000000000E+00 -5.5357056462099E-01  1.3860307933145E+00
   128  1.2700000000000E+00 -5.8460429154192E-01  1.3725024398566E+00
   129  1.2800000000000E+00 -6.1359826365819E-01  1.3569828482723E+00
   130  1.2900000000000E+00 -6.4048970554309E-01  1.3394747700712E+00
   131  1.3000000000000E+00 -6.6522301522622E-01  1.3199865011149E+00
   132  1.3100000000000E+00 -6.8774999780686E-01  1.2985321152553E+00
   133  1.3200000000000E+00 -7.0803007339799E-01  1.2751316744200E+00
   134  1.3300000000000E+00 -7.2603045760617E-01  1.2498114126807E+00
   135  1.3400000000000E+00 -7.4172631286983E-01  1.2226038919797E+00
   136  1.3500000000000E+00 -7.5510086911204E-01  1.1935481273426E+00
   137  1.3600000000000E+00 -7.6614551231049E-01  1.1626896795783E+00
   138  1.3700000000000E+00 -7.7485983974862E-01  1.1300807136635E+00
   139  1.3800000000000E+00 -7.8125168088389E-01  1.0957800212138E+00
   140  1.3900000000000E+00 -7.8533708295380E-01  1.0598530056729E+00
   141  1.4000000000000E+00 -7.8714026063382E-01  1.0223716290857E+00
   142  1.4100000000000E+00 -7.8669350926499E-01  9.8341431957850E-01
   143  1.4200000000000E+00 -7.8403708137924E-01  9.4306583892679E-01
   144  1.4300000000000E+00 -7.7921902646701E-01  9.0141710986564E-01
   145  1.4400000000000E+00 -7.7229499415313E-01  8.5856500307617E-01
   146  1.4500000000000E+00 -7.6332800117138E-01  8.1461208406390E-01
   147  1.4600000000000E+00 -7.5238816275439E-01  7.6966632043371E-01
   148  1.4700000000000E+00 -7.3955238928152E-01  7.2384075035291E-01
   149  1.4800000000000E+00 -7.2490404925189E-01  6.7725311328178E-01
   150  1.4900000000000E+00 -7.0853259987118E-01  6.3002544433434E-01
   151  1.5000000000000E+00 -6.9053318675785E-01  5.8228363391209E-01
   152  1.5100000000000E+00 -6.7100621448371E-01  5.3415695452336E-01
   153  1.5200000000000E+00 -6.5005688986766E-01  4.8577755696497E-01
   154  1.5300000000000E+00 -6.2779474013351E-01  4.3727993829304E-01
   155  1.5400000000000E+00 -6.0433310822521E-01  3.8880038424748E-01
   156  1.5500000000000E+00 -5.7978862774324E-01  3.4047638901801E-01
   157  1.5600000000000E+00 -5.5428068012172E-01  2.9244605544487E-01
   158  1.5700000000000E+00 -5.2793083680815E-01  2.4484747893530E-01
   159  1.5800000000000E+00 -5.0086228933284E-01  1.9781811854378E-01
   160  1.5900000000000E+00 -4.7319927026416E-01  1.5149415881052E-01
   161  1.6000000000000E+00 -4.4506646813642E-01  1.0600986607545E-01
   162  1.6100000000000E+00 -4.1658843950938E-01  6.1496943084749E-02
   163  1.6200000000000E+00 -3.8788902137059E-01  1.8083885781432E-02
   164  1.6300000000000E+00 -3.5909074712508E-01 -2.4104653779144E-02
   165  1.6400000000000E+00 -3.3031426942831E-01 -6.4948494425264E-02
   166  1.6500000000000E+00 -3.0167779311026E-01 -1.0433253881622E-01
   167  1.6600000000000E+00 -2.7329652140868E-01 -1.4214736841152E-01
   168  1.6700000000000E+00 -2.4528211867942E-01 -1.7828981658974E-01
   169  1.6800000000000E+00 -2.1774219268038E-01 -2.1266351612911E-01
   170  1.6900000000000E+00 -1.9077979943399E-01 -2.4517941737247E-01
   171  1.7000000000000E+00 -1.6449297356146E-01 -2.7575627353592E-01
   172  1.7100000000000E+00 -1.3897428685084E-01 -3.0432108978223E-01
   173  1.7200000000000E+00 -1.1431043767054E-01 -3.3080953286678E-01
   174  1.7300000000000E+00 -9.0581873672387E-02 -3.5516629837266E-01
   175  1.7400000000000E+00 -6.7862450042936E-02 -3.7734543278428E-01
   176  1.7500000000000E+00 -4.6219125360816E-02 -3.9731060790044E-01