Si    ONCVPSP-4.0.1  r_core=   1.91059   1.91059   1.91059
     14.0000      4.0000      230118    zatom,zion,pspd
     8       2   2     4   600     0    pspcod,pspxc,lmax,lloc,mmax,r2well
  5.99000000  4.00000000  0.00000000    rchrg fchrg qchrg
     2     2     2     0     0    nproj
     1     1           extension_switch
   0                         5.0782675104393E+00  5.0406621369970E-01
     1  0.0000000000000E+00 -3.5106961782105E-10  8.3106024839630E-10
     2  1.0000000000000E-02  3.3197119485510E-02 -1.4331286337647E-02
     3  2.0000000000000E-02  6.6356768104491E-02 -2.8621476975136E-02
     4  3.0000000000000E-02  9.9441807124603E-02 -4.2830049630903E-02
     5  4.0000000000000E-02  1.3241575651042E-01 -5.6917617110314E-02
     6  5.0000000000000E-02  1.6524311043455E-01 -7.0846465690528E-02
     7  6.0000000000000E-02  1.9788963643839E-01 -8.4581059118929E-02
     8  7.0000000000000E-02  2.3032265321194E-01 -9.8088497758419E-02
     9  8.0000000000000E-02  2.6251128231330E-01 -1.1133892324389E-01
    10  9.0000000000000E-02  2.9442666957676E-01 -1.2430586002605E-01
    11  1.0000000000000E-01  3.2604217245692E-01 -1.3696648635361E-01
    12  1.1000000000000E-01  3.5733351011768E-01 -1.4930182856268E-01
    13  1.2000000000000E-01  3.8827887368927E-01 -1.6129687398005E-01
    14  1.3000000000000E-01  4.1885899477510E-01 -1.7294059928023E-01
    15  1.4000000000000E-01  4.4905717098162E-01 -1.8422591273723E-01
    16  1.5000000000000E-01  4.7885924795823E-01 -1.9514951045474E-01
    17  1.6000000000000E-01  5.0825355815873E-01 -2.0571164831152E-01
    18  1.7000000000000E-01  5.3723081725933E-01 -2.1591583299594E-01
    19  1.8000000000000E-01  5.6578397987957E-01 -2.2576843709358E-01
    20  1.9000000000000E-01  5.9390805693936E-01 -2.3527824470771E-01
    21  2.0000000000000E-01  6.2159989763768E-01 -2.4445593550643E-01
    22  2.1000000000000E-01  6.4885793964490E-01 -2.5331351637683E-01
    23  2.2000000000000E-01  6.7568193165134E-01 -2.6186371100221E-01
    24  2.3000000000000E-01  7.0207263290146E-01 -2.7011931864153E-01
    25  2.4000000000000E-01  7.2803149475641E-01 -2.7809255416323E-01
    26  2.5000000000000E-01  7.5356032966203E-01 -2.8579438195172E-01
    27  2.6000000000000E-01  7.7866097314838E-01 -2.9323385665376E-01
    28  2.7000000000000E-01  8.0333494464604E-01 -3.0041748385395E-01
    29  2.8000000000000E-01  8.2758311297142E-01 -3.0734861365963E-01
    30  2.9000000000000E-01  8.5140537230585E-01 -3.1402687983502E-01
    31  3.0000000000000E-01  8.7480033437177E-01 -3.2044769655507E-01
    32  3.1000000000000E-01  8.9776504229548E-01 -3.2660182405850E-01
    33  3.2000000000000E-01  9.2029471134159E-01 -3.3247501347818E-01
    34  3.3000000000000E-01  9.4238250131531E-01 -3.3804773992859E-01
    35  3.4000000000000E-01  9.6401932495962E-01 -3.4329503155413E-01
    36  3.5000000000000E-01  9.8519369613212E-01 -3.4818640070808E-01
    37  3.6000000000000E-01  1.0058916209406E+00 -3.5268588176505E-01
    38  3.7000000000000E-01  1.0260965343537E+00 -3.5675217829566E-01
    39  3.8000000000000E-01  1.0457892840965E+00 -3.6033892047967E-01
    40  3.9000000000000E-01  1.0649481628995E+00 -3.6339503173294E-01
    41  4.0000000000000E-01  1.0835489894033E+00 -3.6586520160570E-01
    42  4.1000000000000E-01  1.1015652372493E+00 -3.6769046010643E-01
    43  4.2000000000000E-01  1.1189682111081E+00 -3.6880884674976E-01
    44  4.3000000000000E-01  1.1357272676401E+00 -3.6915616584928E-01
    45  4.4000000000000E-01  1.1518100786438E+00 -3.6866681790783E-01
    46  4.5000000000000E-01  1.1671829329524E+00 -3.6727469542907E-01
    47  4.6000000000000E-01  1.1818110729847E+00 -3.6491413011072E-01
    48  4.7000000000000E-01  1.1956590612681E+00 -3.6152087720852E-01
    49  4.8000000000000E-01  1.2086911717274E+00 -3.5703312190182E-01
    50  4.9000000000000E-01  1.2208718000866E+00 -3.5139249176673E-01
    51  5.0000000000000E-01  1.2321658873690E+00 -3.4454505898600E-01
    52  5.1000000000000E-01  1.2425393502131E+00 -3.3644231570794E-01
    53  5.2000000000000E-01  1.2519595115446E+00 -3.2704210601848E-01
    54  5.3000000000000E-01  1.2603955250682E+00 -3.1630949831229E-01
    55  5.4000000000000E-01  1.2678187870728E+00 -3.0421758244266E-01
    56  5.5000000000000E-01  1.2742033291659E+00 -2.9074817688768E-01
    57  5.6000000000000E-01  1.2795261857814E+00 -2.7589243228458E-01
    58  5.7000000000000E-01  1.2837677306317E+00 -2.5965131903999E-01
    59  5.8000000000000E-01  1.2869119766886E+00 -2.4203598830407E-01
    60  5.9000000000000E-01  1.2889468347851E+00 -2.2306799737857E-01
    61  6.0000000000000E-01  1.2898643265143E+00 -2.0277939258959E-01
    62  6.1000000000000E-01  1.2896607477577E+00 -1.8121264476296E-01
    63  6.2000000000000E-01  1.2883367798952E+00 -1.5842043466796E-01
    64  6.3000000000000E-01  1.2858975465179E+00 -1.3446528810421E-01
    65  6.4000000000000E-01  1.2823526142768E+00 -1.0941906266710E-01
    66  6.5000000000000E-01  1.2777159373377E+00 -8.3362290598461E-02
    67  6.6000000000000E-01  1.2720057457652E+00 -5.6383384476326E-02
    68  6.7000000000000E-01  1.2652443790176E+00 -2.8577714783198E-02
    69  6.8000000000000E-01  1.2574580665738E+00 -4.6570576644790E-05
    70  6.9000000000000E-01  1.2486766585407E+00  2.9103983461411E-02
    71  7.0000000000000E-01  1.2389333098656E+00  5.8764338440662E-02
    72  7.1000000000000E-01  1.2282641225218E+00  8.8822644306746E-02
    73  7.2000000000000E-01  1.2167077507013E+00  1.1916616622866E-01
    74  7.3000000000000E-01  1.2043049746587E+00  1.4968267485252E-01
    75  7.4000000000000E-01  1.1910982493657E+00  1.8026185003324E-01
    76  7.5000000000000E-01  1.1771312345731E+00  2.1079667704325E-01
    77  7.6000000000000E-01  1.1624483132077E+00  2.4118481395696E-01
    78  7.7000000000000E-01  1.1470941052656E+00  2.7132990893306E-01
    79  7.8000000000000E-01  1.1311129844876E+00  3.0114284646639E-01
    80  7.9000000000000E-01  1.1145486051171E+00  3.3054290235891E-01
    81  8.0000000000000E-01  1.0974434459448E+00  3.5945878815851E-01
    82  8.1000000000000E-01  1.0798383786379E+00  3.8782956712624E-01
    83  8.2000000000000E-01  1.0617722670360E+00  4.1560542540035E-01
    84  8.3000000000000E-01  1.0432816036780E+00  4.4274828391066E-01
    85  8.4000000000000E-01  1.0244001893071E+00  4.6923223873447E-01
    86  8.5000000000000E-01  1.0051588604895E+00  4.9504381994621E-01
    87  8.6000000000000E-01  9.8558526979417E-01  5.2018206156661E-01
    88  8.7000000000000E-01  9.6570372221187E-01  5.4465837792517E-01
    89  8.8000000000000E-01  9.4553507066704E-01  5.6849624457629E-01
    90  8.9000000000000E-01  9.2509667259719E-01  5.9173068481145E-01
    91  9.0000000000000E-01  9.0440240865975E-01  6.1440756574565E-01
    92  9.1000000000000E-01  8.8346276368741E-01  6.3658271088282E-01
    93  9.2000000000000E-01  8.6228496906451E-01  6.5832083893693E-01
    94  9.3000000000000E-01  8.4087320475222E-01  6.7969434145955E-01
    95  9.4000000000000E-01  8.1922885826471E-01  7.0078191445807E-01
    96  9.5000000000000E-01  7.9735083700471E-01  7.2166706164004E-01
    97  9.6000000000000E-01  7.7523592951976E-01  7.4243648914873E-01
    98  9.7000000000000E-01  7.5287921045210E-01  7.6317841362658E-01
    99  9.8000000000000E-01  7.3027448323863E-01  7.8398080712430E-01
   100  9.9000000000000E-01  7.0741475398310E-01  8.0492960373404E-01
   101  1.0000000000000E+00  6.8429272938084E-01  8.2610689384196E-01
   102  1.0100000000000E+00  6.6090133113689E-01  8.4758913254612E-01
   103  1.0200000000000E+00  6.3723421898619E-01  8.6944538905977E-01
   104  1.0300000000000E+00  6.1328631420781E-01  8.9173566380308E-01
   105  1.0400000000000E+00  5.8905431542652E-01  9.1450929937890E-01
   106  1.0500000000000E+00  5.6453719851647E-01  9.3780351073147E-01
   107  1.0600000000000E+00  5.3973669256537E-01  9.6164205850668E-01
   108  1.0700000000000E+00  5.1465772412027E-01  9.8603408798495E-01
   109  1.0800000000000E+00  4.8930882231547E-01  1.0109731539641E+00
   110  1.0900000000000E+00  4.6370247797556E-01  1.0364364496446E+00
   111  1.1000000000000E+00  4.3785545038243E-01  1.0623842549613E+00
   112  1.1100000000000E+00  4.1178901609082E-01  1.0887596169246E+00
   113  1.1200000000000E+00  3.8552915495754E-01  1.1154882714430E+00
   114  1.1300000000000E+00  3.5910666940944E-01  1.1424788128214E+00
   115  1.1400000000000E+00  3.3255723389759E-01  1.1696231137194E+00
   116  1.1500000000000E+00  3.0592137246042E-01  1.1967969948618E+00
   117  1.1600000000000E+00  2.7924436332998E-01  1.2238611402579E+00
   118  1.1700000000000E+00  2.5257607055181E-01  1.2506622501689E+00
   119  1.1800000000000E+00  2.2597070362919E-01  1.2770344206141E+00
   120  1.1900000000000E+00  1.9948650724199E-01  1.3028007348570E+00
   121  1.2000000000000E+00  1.7318538409817E-01  1.3277750491548E+00
   122  1.2100000000000E+00  1.4713245495728E-01  1.3517639520755E+00
   123  1.2200000000000E+00  1.2139556078474E-01  1.3745688739950E+00
   124  1.2300000000000E+00  9.6044712856943E-02  1.3959883209708E+00
   125  1.2400000000000E+00  7.1151497418021E-02  1.4158202051162E+00
   126  1.2500000000000E+00  4.6788442177708E-02  1.4338642419006E+00
   127  1.2600000000000E+00  2.3028352533896E-02  1.4499243834832E+00
   128  1.2700000000000E+00 -5.6374116797412E-05  1.4638112563053E+00
   129  1.2800000000000E+00 -2.2394447250961E-02  1.4753445707047E+00
   130  1.2900000000000E+00 -4.3916386298812E-02  1.4843554703084E+00
   131  1.3000000000000E+00 -6.4555218842161E-02  1.4906887893985E+00
   132  1.3100000000000E+00 -8.4247164847940E-02  1.4942051873272E+00
   133  1.3200000000000E+00 -1.0293229799366E-01  1.4947831303855E+00
   134  1.3300000000000E+00 -1.2055517540570E-01  1.4923206932746E+00
   135  1.3400000000000E+00 -1.3706542751648E-01  1.4867371544712E+00
   136  1.3500000000000E+00 -1.5241830025238E-01  1.4779743623034E+00
   137  1.3600000000000E+00 -1.6657514237724E-01  1.4659978514124E+00
   138  1.3700000000000E+00 -1.7950383153360E-01  1.4507976924457E+00
   139  1.3800000000000E+00 -1.9117913332718E-01  1.4323890612346E+00
   140  1.3900000000000E+00 -2.0158298868997E-01  1.4108125173654E+00
   141  1.4000000000000E+00 -2.1070472570870E-01  1.3861339858410E+00
   142  1.4100000000000E+00 -2.1854119311139E-01  1.3584444394458E+00
   143  1.4200000000000E+00 -2.2509681365097E-01  1.3278592833936E+00
   144  1.4300000000000E+00 -2.3038355668822E-01  1.2945174477941E+00
   145  1.4400000000000E+00 -2.3442083035861E-01  1.2585801974034E+00
   146  1.4500000000000E+00 -2.3723529477062E-01  1.2202296719089E+00
   147  1.4600000000000E+00 -2.3886059872992E-01  1.1796671736371E+00
   148  1.4700000000000E+00 -2.3933704349017E-01  1.1371112229915E+00
   149  1.4800000000000E+00 -2.3871117798541E-01  1.0927954050765E+00
   150  1.4900000000000E+00 -2.3703533088427E-01  1.0469660337953E+00
   151  1.5000000000000E+00 -2.3436708561764E-01  9.9987966220587E-01
   152  1.5100000000000E+00 -2.3076870524569E-01  9.5180047000095E-01
   153  1.5200000000000E+00 -2.2630651464715E-01  9.0299756065754E-01
   154  1.5300000000000E+00 -2.2105024802049E-01  8.5374220202538E-01
   155  1.5400000000000E+00 -2.1507237007559E-01  8.0430504488706E-01
   156  1.5500000000000E+00 -2.0844737956264E-01  7.5495335430787E-01
   157  1.5600000000000E+00 -2.0125110392664E-01  7.0594828839448E-01
   158  1.5700000000000E+00 -1.9355999389096E-01  6.5754225840533E-01
   159  1.5800000000000E+00 -1.8545042666188E-01  6.0997640300670E-01
   160  1.5900000000000E+00 -1.7699802620938E-01  5.6347820785819E-01
   161  1.6000000000000E+00 -1.6827700872220E-01  5.1825929967178E-01
   162  1.6100000000000E+00 -1.5935956086441E-01  4.7451344143956E-01
   163  1.6200000000000E+00 -1.5031525785692E-01  4.3241475250024E-01
   164  1.6300000000000E+00 -1.4121052775577E-01  3.9211617423242E-01
   165  1.6400000000000E+00 -1.3210816892913E-01  3.5374820980834E-01
   166  1.6500000000000E+00 -1.2306691769470E-01  3.1741788769797E-01
   167  1.6600000000000E+00 -1.1414114935008E-01  2.8320861420501E-01
   168  1.6700000000000E+00 -1.0538074897019E-01  2.5118111542502E-01
   169  1.6800000000000E+00 -9.6830987584772E-02  2.2137405216445E-01
   170  1.6900000000000E+00 -8.8532393137601E-02  1.9380429854096E-01
   171  1.7000000000000E+00 -8.0520693111182E-02  1.6846755421314E-01
   172  1.7100000000000E+00 -7.2826820501624E-02  1.4533921652768E-01
   173  1.7200000000000E+00 -6.5476982150834E-02  1.2437550893637E-01
   174  1.7300000000000E+00 -5.8492786347417E-02  1.0551484765929E-01
   175  1.7400000000000E+00 -5.1891425674270E-02  8.8679424767525E-02
   176  1.7500000000000E+00 -4.5685910308473E-02  7.3776983083157E-02
   177  1.7600000000000E+00 -3.9885346259841E-02  6.0702755632945E-02
   178  1.7700000000000E+00 -3.4495252406727E-02  4.9341540120912E-02
   179  1.7800000000000E+00 -2.9517908507187E-02  3.9569873466958E-02
   180  1.7900000000000E+00 -2.4952737046285E-02  3.1258304464114E-02
   181  1.8000000000000E+00 -2.0796675536394E-02  2.4273619077542E-02
   182  1.8100000000000E+00 -1.7044599454610E-02  1.8481195184336E-02
   183  1.8200000000000E+00 -1.3690474443470E-02  1.3749576451269E-02
   184  1.8300000000000E+00 -1.0729917381014E-02  9.9593095987983E-03
   185  1.8400000000000E+00 -8.1538821679340E-03  6.9843109859456E-03
   186  1.8500000000000E+00 -5.9515268458552E-03  4.7016486673683E-03
   187  1.8600000000000E+00 -4.1119671870971E-03  2.9977314198389E-03
   188  1.8700000000000E+00 -2.6244265242769E-03  1.7694262869458E-03
   189  1.8800000000000E+00 -1.4789452997566E-03  9.2590832114143E-04
   190  1.8900000000000E+00 -6.6352528396528E-04  3.8841530669507E-04
   191  1.9000000000000E+00 -1.7616470638895E-04  9.7385431334587E-05
   192  1.9100000000000E+00 -3.3653207905429E-06  2.0917333144732E-06
   193  1.9200000000000E+00  3.7449941795909E-06 -1.8402256698070E-06
   194  1.9300000000000E+00 -2.2698273372533E-06  1.1644509484015E-06
   195  1.94  0. -0.
   196  1.95  0. -0.
   197  1.96  0.  0.
   198  1.97  0.  0.
   199  1.98  0.  0.
   200  1.99  0.  0.
   201  2.00  0.  0.
   202  2.01  0.  0.
   203  2.02  0.  0.
   204  2.03  0.  0.
   205  2.04  0.  0.
   206  2.05  0.  0.
   207  2.06  0.  0.
   208  2.07  0.  0.
   209  2.08  0.  0.
   210  2.09  0.  0.
   211  2.10  0.  0.
   212  2.11  0.  0.
   213  2.12  0.  0.
   214  2.13  0.  0.
   215  2.14  0.  0.
   216  2.15  0.  0.
   217  2.16  0.  0.
   218  2.17  0.  0.
   219  2.18  0.  0.
   220  2.19  0.  0.
   221  2.20  0.  0.
   222  2.21  0.  0.
   223  2.22  0.  0.
   224  2.23  0.  0.
   225  2.24  0.  0.
   226  2.25  0.  0.
   227  2.26  0.  0.
   228  2.27  0.  0.
   229  2.28  0.  0.
   230  2.29  0.  0.
   231  2.30  0.  0.
   232  2.31  0.  0.
   233  2.32  0.  0.
   234  2.33  0.  0.
   235  2.34  0.  0.
   236  2.35  0.  0.
   237  2.36  0.  0.
   238  2.37  0.  0.
   239  2.38  0.  0.
   240  2.39  0.  0.
   241  2.40  0.  0.
   242  2.41  0.  0.
   243  2.42  0.  0.
   244  2.43  0.  0.
   245  2.44  0.  0.
   246  2.45  0.  0.
   247  2.46  0.  0.
   248  2.47  0.  0.
   249  2.48  0.  0.
   250  2.49  0.  0.
   251  2.50  0.  0.
   252  2.51  0.  0.
   253  2.52  0.  0.
   254  2.53  0.  0.
   255  2.54  0.  0.
   256  2.55  0.  0.
   257  2.56  0.  0.
   258  2.57  0.  0.
   259  2.58  0.  0.
   260  2.59  0.  0.
   261  2.60  0.  0.
   262  2.61  0.  0.
   263  2.62  0.  0.
   264  2.63  0.  0.
   265  2.64  0.  0.
   266  2.65  0.  0.
   267  2.66  0.  0.
   268  2.67  0.  0.
   269  2.68  0.  0.
   270  2.69  0.  0.
   271  2.70  0.  0.
   272  2.71  0.  0.
   273  2.72  0.  0.
   274  2.73  0.  0.
   275  2.74  0.  0.
   276  2.75  0.  0.
   277  2.76  0.  0.
   278  2.77  0.  0.
   279  2.78  0.  0.
   280  2.79  0.  0.
   281  2.80  0.  0.
   282  2.81  0.  0.
   283  2.82  0.  0.
   284  2.83  0.  0.
   285  2.84  0.  0.
   286  2.85  0.  0.
   287  2.86  0.  0.
   288  2.87  0.  0.
   289  2.88  0.  0.
   290  2.89  0.  0.
   291  2.90  0.  0.
   292  2.91  0.  0.
   293  2.92  0.  0.
   294  2.93  0.  0.
   295  2.94  0.  0.
   296  2.95  0.  0.
   297  2.96  0.  0.
   298  2.97  0.  0.
   299  2.98  0.  0.
   300  2.99  0.  0.
   301  3.00  0.  0.
   302  3.01  0.  0.
   303  3.02  0.  0.
   304  3.03  0.  0.
   305  3.04  0.  0.
   306  3.05  0.  0.
   307  3.06  0.  0.
   308  3.07  0.  0.
   309  3.08  0.  0.
   310  3.09  0.  0.
   311  3.10  0.  0.
   312  3.11  0.  0.
   313  3.12  0.  0.
   314  3.13  0.  0.
   315  3.14  0.  0.
   316  3.15  0.  0.
   317  3.16  0.  0.
   318  3.17  0.  0.
   319  3.18  0.  0.
   320  3.19  0.  0.
   321  3.20  0.  0.
   322  3.21  0.  0.
   323  3.22  0.  0.
   324  3.23  0.  0.
   325  3.24  0.  0.
   326  3.25  0.  0.
   327  3.26  0.  0.
   328  3.27  0.  0.
   329  3.28  0.  0.
   330  3.29  0.  0.
   331  3.30  0.  0.
   332  3.31  0.  0.
   333  3.32  0.  0.
   334  3.33  0.  0.
   335  3.34  0.  0.
   336  3.35  0.  0.
   337  3.36  0.  0.
   338  3.37  0.  0.
   339  3.38  0.  0.
   340  3.39  0.  0.
   341  3.40  0.  0.
   342  3.41  0.  0.
   343  3.42  0.  0.
   344  3.43  0.  0.
   345  3.44  0.  0.
   346  3.45  0.  0.
   347  3.46  0.  0.
   348  3.47  0.  0.
   349  3.48  0.  0.
   350  3.49  0.  0.
   351  3.50  0.  0.
   352  3.51  0.  0.
   353  3.52  0.  0.
   354  3.53  0.  0.
   355  3.54  0.  0.
   356  3.55  0.  0.
   357  3.56  0.  0.
   358  3.57  0.  0.
   359  3.58  0.  0.
   360  3.59  0.  0.
   361  3.60  0.  0.
   362  3.61  0.  0.
   363  3.62  0.  0.
   364  3.63  0.  0.
   365  3.64  0.  0.
   366  3.65  0.  0.
   367  3.66  0.  0.
   368  3.67  0.  0.
   369  3.68  0.  0.
   370  3.69  0.  0.
   371  3.70  0.  0.
   372  3.71  0.  0.
   373  3.72  0.  0.
   374  3.73  0.  0.
   375  3.74  0.  0.
   376  3.75  0.  0.
   377  3.76  0.  0.
   378  3.77  0.  0.
   379  3.78  0.  0.
   380  3.79  0.  0.
   381  3.80  0.  0.
   382  3.81  0.  0.
   383  3.82  0.  0.
   384  3.83  0.  0.
   385  3.84  0.  0.
   386  3.85  0.  0.
   387  3.86  0.  0.
   388  3.87  0.  0.
   389  3.88  0.  0.
   390  3.89  0.  0.
   391  3.90  0.  0.
   392  3.91  0.  0.
   393  3.92  0.  0.
   394  3.93  0.  0.
   395  3.94  0.  0.
   396  3.95  0.  0.
   397  3.96  0.  0.
   398  3.97  0.  0.
   399  3.98  0.  0.
   400  3.99  0.  0.
   401  4.00  0.  0.
   402  4.01  0.  0.
   403  4.02  0.  0.
   404  4.03  0.  0.
   405  4.04  0.  0.
   406  4.05  0.  0.
   407  4.06  0.  0.
   408  4.07  0.  0.
   409  4.08  0.  0.
   410  4.09  0.  0.
   411  4.10  0.  0.
   412  4.11  0.  0.
   413  4.12  0.  0.
   414  4.13  0.  0.
   415  4.14  0.  0.
   416  4.15  0.  0.
   417  4.16  0.  0.
   418  4.17  0.  0.
   419  4.18  0.  0.
   420  4.19  0.  0.
   421  4.20  0.  0.
   422  4.21  0.  0.
   423  4.22  0.  0.
   424  4.23  0.  0.
   425  4.24  0.  0.
   426  4.25  0.  0.
   427  4.26  0.  0.
   428  4.27  0.  0.
   429  4.28  0.  0.
   430  4.29  0.  0.
   431  4.30  0.  0.
   432  4.31  0.  0.
   433  4.32  0.  0.
   434  4.33  0.  0.
   435  4.34  0.  0.
   436  4.35  0.  0.
   437  4.36  0.  0.
   438  4.37  0.  0.
   439  4.38  0.  0.
   440  4.39  0.  0.
   441  4.40  0.  0.
   442  4.41  0.  0.
   443  4.42  0.  0.
   444  4.43  0.  0.
   445  4.44  0.  0.
   446  4.45  0.  0.
   447  4.46  0.  0.
   448  4.47  0.  0.
   449  4.48  0.  0.
   450  4.49  0.  0.
   451  4.50  0.  0.
   452  4.51  0.  0.
   453  4.52  0.  0.
   454  4.53  0.  0.
   455  4.54  0.  0.
   456  4.55  0.  0.
   457  4.56  0.  0.
   458  4.57  0.  0.
   459  4.58  0.  0.
   460  4.59  0.  0.
   461  4.60  0.  0.
   462  4.61  0.  0.
   463  4.62  0.  0.
   464  4.63  0.  0.
   465  4.64  0.  0.
   466  4.65  0.  0.
   467  4.66  0.  0.
   468  4.67  0.  0.
   469  4.68  0.  0.
   470  4.69  0.  0.
   471  4.70  0.  0.
   472  4.71  0.  0.
   473  4.72  0.  0.
   474  4.73  0.  0.
   475  4.74  0.  0.
   476  4.75  0.  0.
   477  4.76  0.  0.
   478  4.77  0.  0.
   479  4.78  0.  0.
   480  4.79  0.  0.
   481  4.80  0.  0.
   482  4.81  0.  0.
   483  4.82  0.  0.
   484  4.83  0.  0.
   485  4.84  0.  0.
   486  4.85  0.  0.
   487  4.86  0.  0.
   488  4.87  0.  0.
   489  4.88  0.  0.
   490  4.89  0.  0.
   491  4.90  0.  0.
   492  4.91  0.  0.
   493  4.92  0.  0.
   494  4.93  0.  0.
   495  4.94  0.  0.
   496  4.95  0.  0.
   497  4.96  0.  0.
   498  4.97  0.  0.
   499  4.98  0.  0.
   500  4.99  0.  0.
   501  5.00  0.  0.
   502  5.01  0.  0.
   503  5.02  0.  0.
   504  5.03  0.  0.
   505  5.04  0.  0.
   506  5.05  0.  0.
   507  5.06  0.  0.
   508  5.07  0.  0.
   509  5.08  0.  0.
   510  5.09  0.  0.
   511  5.10  0.  0.
   512  5.11  0.  0.
   513  5.12  0.  0.
   514  5.13  0.  0.
   515  5.14  0.  0.
   516  5.15  0.  0.
   517  5.16  0.  0.
   518  5.17  0.  0.
   519  5.18  0.  0.
   520  5.19  0.  0.
   521  5.20  0.  0.
   522  5.21  0.  0.
   523  5.22  0.  0.
   524  5.23  0.  0.
   525  5.24  0.  0.
   526  5.25  0.  0.
   527  5.26  0.  0.
   528  5.27  0.  0.
   529  5.28  0.  0.
   530  5.29  0.  0.
   531  5.30  0.  0.
   532  5.31  0.  0.
   533  5.32  0.  0.
   534  5.33  0.  0.
   535  5.34  0.  0.
   536  5.35  0.  0.
   537  5.36  0.  0.
   538  5.37  0.  0.
   539  5.38  0.  0.
   540  5.39  0.  0.
   541  5.40  0.  0.
   542  5.41  0.  0.
   543  5.42  0.  0.
   544  5.43  0.  0.
   545  5.44  0.  0.
   546  5.45  0.  0.
   547  5.46  0.  0.
   548  5.47  0.  0.
   549  5.48  0.  0.
   550  5.49  0.  0.
   551  5.50  0.  0.
   552  5.51  0.  0.
   553  5.52  0.  0.
   554  5.53  0.  0.
   555  5.54  0.  0.
   556  5.55  0.  0.
   557  5.56  0.  0.
   558  5.57  0.  0.
   559  5.58  0.  0.
   560  5.59  0.  0.
   561  5.60  0.  0.
   562  5.61  0.  0.
   563  5.62  0.  0.
   564  5.63  0.  0.
   565  5.64  0.  0.
   566  5.65  0.  0.
   567  5.66  0.  0.
   568  5.67  0.  0.
   569  5.68  0.  0.
   570  5.69  0.  0.
   571  5.70  0.  0.
   572  5.71  0.  0.
   573  5.72  0.  0.
   574  5.73  0.  0.
   575  5.74  0.  0.
   576  5.75  0.  0.
   577  5.76  0.  0.
   578  5.77  0.  0.
   579  5.78  0.  0.
   580  5.79  0.  0.
   581  5.80  0.  0.
   582  5.81  0.  0.
   583  5.82  0.  0.
   584  5.83  0.  0.
   585  5.84  0.  0.
   586  5.85  0.  0.
   587  5.86  0.  0.
   588  5.87  0.  0.
   589  5.88  0.  0.
   590  5.89  0.  0.
   591  5.90  0.  0.
   592  5.91  0.  0.
   593  5.92  0.  0.
   594  5.93  0.  0.
   595  5.94  0.  0.
   596  5.95  0.  0.
   597  5.96  0.  0.
   598  5.97  0.  0.
   599  5.98  0.  0.
   600  5.99  0.  0.
   1                         2.1056293328665E+00  3.2254895799727E-01
     1  0.0000000000000E+00 -2.5578504592172E-10  5.6349883092999E-10
     2  1.0000000000000E-02  1.2340768494855E-04  5.7210874190584E-04
     3  2.0000000000000E-02  4.9528441985422E-04  2.2839829091472E-03
     4  3.0000000000000E-02  1.1205752824085E-03  5.1223017475797E-03
     5  4.0000000000000E-02  2.0074689982827E-03  9.0649817674082E-03
     6  5.0000000000000E-02  3.1673188164698E-03  1.4081352333325E-02
     7  6.0000000000000E-02  4.6145326923725E-03  2.0132399379655E-02
     8  7.0000000000000E-02  6.3664337258997E-03  2.7171075162572E-02
     9  8.0000000000000E-02  8.4430920576185E-03  3.5142671397933E-02
    10  9.0000000000000E-02  1.0867129671098E-02  4.3985252593683E-02
    11  1.0000000000000E-01  1.3663499781417E-02  5.3630145875682E-02
    12  1.1000000000000E-01  1.6859242706575E-02  6.4002483129227E-02
    13  1.2000000000000E-01  2.0483220318145E-02  7.5021790840233E-02
    14  1.3000000000000E-01  2.4565831348208E-02  8.6602622623813E-02
    15  1.4000000000000E-01  2.9138709989805E-02  9.8655229077353E-02
    16  1.5000000000000E-01  3.4234410366391E-02  1.1108625929344E-01
    17  1.6000000000000E-01  3.9886079560864E-02  1.2379948811768E-01
    18  1.7000000000000E-01  4.6127121985755E-02  1.3669656303994E-01
    19  1.8000000000000E-01  5.2990857942140E-02  1.4967776446614E-01
    20  1.9000000000000E-01  6.0510179255492E-02  1.6264277303337E-01
    21  2.0000000000000E-01  6.8717204891474E-02  1.7549143760338E-01
    22  2.1000000000000E-01  7.7642939443705E-02  1.8812453759967E-01
    23  2.2000000000000E-01  8.7316937348886E-02  2.0044453343990E-01
    24  2.3000000000000E-01  9.7766975622817E-02  2.1235629895827E-01
    25  2.4000000000000E-01  1.0901873782438E-01  2.2376782990954E-01
    26  2.5000000000000E-01  1.2109551184444E-01  2.3459092289590E-01
    27  2.6000000000000E-01  1.3401790398387E-01  2.4474181935737E-01
    28  2.7000000000000E-01  1.4780357163086E-01  2.5414180961306E-01
    29  2.8000000000000E-01  1.6246697667390E-01  2.6271779233040E-01
    30  2.9000000000000E-01  1.7801916159491E-01  2.7040278522937E-01
    31  3.0000000000000E-01  1.9446754997866E-01  2.7713638329423E-01
    32  3.1000000000000E-01  2.1181577295266E-01  2.8286516126163E-01
    33  3.2000000000000E-01  2.3006352283663E-01  2.8754301767674E-01
    34  3.3000000000000E-01  2.4920643503675E-01  2.9113145835295E-01
    35  3.4000000000000E-01  2.6923599896780E-01  2.9359981763112E-01
    36  3.5000000000000E-01  2.9013949852915E-01  2.9492541640424E-01
    37  3.6000000000000E-01  3.1189998240108E-01  2.9509365645003E-01
    38  3.7000000000000E-01  3.3449626416752E-01  2.9409805118885E-01
    39  3.8000000000000E-01  3.5790295201400E-01  2.9194019355417E-01
    40  3.9000000000000E-01  3.8209050749583E-01  2.8862966222139E-01
    41  4.0000000000000E-01  4.0702533262594E-01  2.8418386798227E-01
    42  4.1000000000000E-01  4.3266988429434E-01  2.7862784257278E-01
    43  4.2000000000000E-01  4.5898281480639E-01  2.7199397275532E-01
    44  4.3000000000000E-01  4.8591913711471E-01  2.6432168291883E-01
    45  4.4000000000000E-01  5.1343041312358E-01  2.5565706988689E-01
    46  4.5000000000000E-01  5.4146496326570E-01  2.4605249401096E-01
    47  4.6000000000000E-01  5.6996809539099E-01  2.3556613097007E-01
    48  4.7000000000000E-01  5.9888235086768E-01  2.2426148899575E-01
    49  4.8000000000000E-01  6.2814776567754E-01  2.1220689648997E-01
    50  4.9000000000000E-01  6.5770214419184E-01  1.9947496520119E-01
    51  5.0000000000000E-01  6.8748134324235E-01  1.8614203426833E-01
    52  5.1000000000000E-01  7.1741956405349E-01  1.7228760053317E-01
    53  5.2000000000000E-01  7.4744964957767E-01  1.5799374055771E-01
    54  5.3000000000000E-01  7.7750338477625E-01  1.4334452976403E-01
    55  5.4000000000000E-01  8.0751179741268E-01  1.2842546404152E-01
    56  5.5000000000000E-01  8.3740545697291E-01  1.1332288903982E-01
    57  5.6000000000000E-01  8.6711476939858E-01  9.8123442187838E-02
    58  5.7000000000000E-01  8.9657026541262E-01  8.2913512251853E-02
    59  5.8000000000000E-01  9.2570288033041E-01  6.7778720970738E-02
    60  5.9000000000000E-01  9.5444422338433E-01  5.2803430987750E-02
    61  6.0000000000000E-01  9.8272683474140E-01  3.8070283939078E-02
    62  6.1000000000000E-01  1.0104844285629E+00  2.3659772163360E-02
    63  6.2000000000000E-01  1.0376521206379E+00  9.6498470681542E-03
    64  6.3000000000000E-01  1.0641666393192E+00 -3.8844332667911E-03
    65  6.4000000000000E-01  1.0899665186965E+00 -1.6871215148598E-02
    66  6.5000000000000E-01  1.1149922731569E+00 -2.9242117388467E-02
    67  6.6000000000000E-01  1.1391865527031E+00 -4.0932455382143E-02
    68  6.7000000000000E-01  1.1624942786245E+00 -5.1881420574969E-02
    69  6.8000000000000E-01  1.1848627593424E+00 -6.2032215250580E-02
    70  6.9000000000000E-01  1.2062417864740E+00 -7.1332143096079E-02
    71  7.0000000000000E-01  1.2265837113799E+00 -7.9732656500653E-02
    72  7.1000000000000E-01  1.2458435026769E+00 -8.7189362033918E-02
    73  7.2000000000000E-01  1.2639787853999E+00 -9.3661986019274E-02
    74  7.3000000000000E-01  1.2809498626960E+00 -9.9114302561292E-02
    75  7.4000000000000E-01  1.2967197211136E+00 -1.0351402679991E-01
    76  7.5000000000000E-01  1.3112540207191E+00 -1.0683267654318E-01
    77  7.6000000000000E-01  1.3245210714236E+00 -1.0904540577071E-01
    78  7.7000000000000E-01  1.3364917970362E+00 -1.1013081379771E-01
    79  7.8000000000000E-01  1.3471396886724E+00 -1.1007073414156E-01
    80  7.9000000000000E-01  1.3564407492407E+00 -1.0885000733598E-01
    81  8.0000000000000E-01  1.3643734307977E+00 -1.0645624209035E-01
    82  8.1000000000000E-01  1.3709185666123E+00 -1.0287956929073E-01
    83  8.2000000000000E-01  1.3760592998016E+00 -9.8112393384920E-02
    84  8.3000000000000E-01  1.3797810104029E+00 -9.2149145683793E-02
    85  8.4000000000000E-01  1.3820712427222E+00 -8.4986044047196E-02
    86  8.5000000000000E-01  1.3829196347526E+00 -7.6620863303422E-02
    87  8.6000000000000E-01  1.3823178513851E+00 -6.7052720579313E-02
    88  8.7000000000000E-01  1.3802595230448E+00 -5.6281879493678E-02
    89  8.8000000000000E-01  1.3767401912675E+00 -4.4309576893527E-02
    90  8.9000000000000E-01  1.3717572626007E+00 -3.1137875491931E-02
    91  9.0000000000000E-01  1.3653099720588E+00 -1.6769545402548E-02
    92  9.1000000000000E-01  1.3573993571926E+00 -1.2079771622452E-03
    93  9.2000000000000E-01  1.3480282436466E+00  1.5542871606133E-02
    94  9.3000000000000E-01  1.3372012428815E+00  3.3478494208923E-02
    95  9.4000000000000E-01  1.3249247625254E+00  5.2593816388750E-02
    96  9.5000000000000E-01  1.3112070296032E+00  7.2883140654597E-02
    97  9.6000000000000E-01  1.2960581266646E+00  9.4340053297213E-02
    98  9.7000000000000E-01  1.2794900406050E+00  1.1695729449339E-01
    99  9.8000000000000E-01  1.2615167237424E+00  1.4072659244664E-01
   100  9.9000000000000E-01  1.2421541664846E+00  1.6563846305306E-01
   101  1.0000000000000E+00  1.2214204806987E+00  1.9168197711357E-01
   102  1.0100000000000E+00  1.1993359926731E+00  2.1884449763118E-01
   103  1.0200000000000E+00  1.1759233443588E+00  2.4711139022792E-01
   104  1.0300000000000E+00  1.1512076013769E+00  2.7646571018601E-01
   105  1.0400000000000E+00  1.1252163660985E+00  3.0688787005493E-01
   106  1.0500000000000E+00  1.0979798939382E+00  3.3835529216508E-01