S     ONCVPSP-4.0.1  r_core=   1.80696   1.80696   1.90691
     16.0000      6.0000      230118    zatom,zion,pspd
     8       2   2     4   600     0    pspcod,pspxc,lmax,lloc,mmax,r2well
  5.99000000  6.00000000  0.00000000    rchrg fchrg qchrg
     2     2     2     0     0    nproj
     1     1           extension_switch
   0                         8.4436152193692E+00  8.3119344520794E-01
     1  0.0000000000000E+00  1.3574058543853E-10 -4.3132672433721E-10
     2  1.0000000000000E-02  3.9282307856207E-02 -2.2283828763468E-02
     3  2.0000000000000E-02  7.8556331102195E-02 -4.4558863356640E-02
     4  3.0000000000000E-02  1.1781350684468E-01 -6.6815702160253E-02
     5  4.0000000000000E-02  1.5704471884663E-01 -8.9043737571019E-02
     6  5.0000000000000E-02  1.9624002887637E-01 -1.1123057518330E-01
     7  6.0000000000000E-02  2.3538841758471E-01 -1.3336147926956E-01
     8  7.0000000000000E-02  2.7447753792496E-01 -1.5541885281348E-01
     9  8.0000000000000E-02  3.1349348399509E-01 -1.7738175991861E-01
    10  9.0000000000000E-02  3.5242057801442E-01 -1.9922549788540E-01
    11  1.0000000000000E-01  3.9124117795084E-01 -2.2092122562829E-01
    12  1.1000000000000E-01  4.2993550809132E-01 -2.4243565439790E-01
    13  1.2000000000000E-01  4.6848151460009E-01 -2.6373080599113E-01
    14  1.3000000000000E-01  5.0685474783869E-01 -2.8476384278189E-01
    15  1.4000000000000E-01  5.4502827293301E-01 -3.0548697299905E-01
    16  1.5000000000000E-01  5.8297260976662E-01 -3.2584743372510E-01
    17  1.6000000000000E-01  6.2065570326265E-01 -3.4578755310211E-01
    18  1.7000000000000E-01  6.5804292448898E-01 -3.6524489222092E-01
    19  1.8000000000000E-01  6.9509710278969E-01 -3.8415246614933E-01
    20  1.9000000000000E-01  7.3177858881138E-01 -4.0243904253583E-01
    21  2.0000000000000E-01  7.6804534796118E-01 -4.2002951522115E-01
    22  2.1000000000000E-01  8.0385308350670E-01 -4.3684534931228E-01
    23  2.2000000000000E-01  8.3915538821118E-01 -4.5280509323469E-01
    24  2.3000000000000E-01  8.7390392309282E-01 -4.6782495239038E-01
    25  2.4000000000000E-01  9.0804862160960E-01 -4.8181941822337E-01
    26  2.5000000000000E-01  9.4153791730239E-01 -4.9470194574047E-01
    27  2.6000000000000E-01  9.7431899268337E-01 -5.0638567186372E-01
    28  2.7000000000000E-01  1.0063380469367E+00 -5.1678416641112E-01
    29  2.8000000000000E-01  1.0375405798058E+00 -5.2581220702042E-01
    30  2.9000000000000E-01  1.0678716888787E+00 -5.3338656895594E-01
    31  3.0000000000000E-01  1.0972763773544E+00 -5.3942682047346E-01
    32  3.1000000000000E-01  1.1256998692728E+00 -5.4385611426914E-01
    33  3.2000000000000E-01  1.1530879291320E+00 -5.4660196550726E-01
    34  3.3000000000000E-01  1.1793871827876E+00 -5.4759700700922E-01
    35  3.4000000000000E-01  1.2045454365362E+00 -5.4677971239317E-01
    36  3.5000000000000E-01  1.2285119913309E+00 -5.4409507827798E-01
    37  3.6000000000000E-01  1.2512379491532E+00 -5.3949525710277E-01
    38  3.7000000000000E-01  1.2726765086785E+00 -5.3294013266150E-01
    39  3.8000000000000E-01  1.2927832475177E+00 -5.2439783110221E-01
    40  3.9000000000000E-01  1.3115163884896E+00 -5.1384516088716E-01
    41  4.0000000000000E-01  1.3288370475859E+00 -5.0126797604368E-01
    42  4.1000000000000E-01  1.3447094615165E+00 -4.8666145794512E-01
    43  4.2000000000000E-01  1.3591011929762E+00 -4.7003031183791E-01
    44  4.3000000000000E-01  1.3719833120450E+00 -4.5138887535950E-01
    45  4.4000000000000E-01  1.3833305524214E+00 -4.3076113736279E-01
    46  4.5000000000000E-01  1.3931214414903E+00 -4.0818066645932E-01
    47  4.6000000000000E-01  1.4013384035326E+00 -3.8369044980380E-01
    48  4.7000000000000E-01  1.4079678357010E+00 -3.5734264375120E-01
    49  4.8000000000000E-01  1.4130001566971E+00 -3.2919823910985E-01
    50  4.9000000000000E-01  1.4164298283980E+00 -2.9932664477586E-01
    51  5.0000000000000E-01  1.4182553509841E+00 -2.6780519455094E-01
    52  5.1000000000000E-01  1.4184792324076E+00 -2.3471858290351E-01
    53  5.2000000000000E-01  1.4171079333238E+00 -2.0015823631931E-01
    54  5.3000000000000E-01  1.4141517888592E+00 -1.6422162768869E-01
    55  5.4000000000000E-01  1.4096249088292E+00 -1.2701154188426E-01
    56  5.5000000000000E-01  1.4035450582251E+00 -8.8635301281657E-02
    57  5.6000000000000E-01  1.3959335199760E+00 -4.9203960462169E-02
    58  5.7000000000000E-01  1.3868149421364E+00 -8.8314796982039E-03
    59  5.8000000000000E-01  1.3762171717747E+00  3.2366112941671E-02
    60  5.9000000000000E-01  1.3641710779183E+00  7.4271560928462E-02
    61  6.0000000000000E-01  1.3507103659630E+00  1.1676721013963E-01
    62  6.1000000000000E-01  1.3358713859678E+00  1.5973582151333E-01
    63  6.2000000000000E-01  1.3196929372342E+00  2.0306135604309E-01
    64  6.3000000000000E-01  1.3022160715130E+00  2.4662972309409E-01
    65  6.4000000000000E-01  1.2834838970925E+00  2.9032948357181E-01
    66  6.5000000000000E-01  1.2635413858963E+00  3.3405250014314E-01
    67  6.6000000000000E-01  1.2424351855683E+00  3.7769452748377E-01
    68  6.7000000000000E-01  1.2202134383385E+00  4.2115573639922E-01
    69  6.8000000000000E-01  1.1969256082602E+00  4.6434116662316E-01
    70  6.9000000000000E-01  1.1726223181772E+00  5.0716110412531E-01
    71  7.0000000000000E-01  1.1473551975364E+00  5.4953137984520E-01
    72  7.1000000000000E-01  1.1211767419009E+00  5.9137358789355E-01
    73  7.2000000000000E-01  1.0941401847478E+00  6.3261522241062E-01
    74  7.3000000000000E-01  1.0662993818605E+00  6.7318973342632E-01
    75  7.4000000000000E-01  1.0377087083512E+00  7.1303650320979E-01
    76  7.5000000000000E-01  1.0084229680750E+00  7.5210074571095E-01
    77  7.6000000000000E-01  9.7849731493698E-01  7.9033333276391E-01
    78  7.7000000000000E-01  9.4798718534147E-01  8.2769055172603E-01
    79  7.8000000000000E-01  9.1694824080294E-01  8.6413380015015E-01
    80  7.9000000000000E-01  8.8543631952635E-01  8.9962922391543E-01
    81  8.0000000000000E-01  8.5350739558113E-01  9.3414730595948E-01
    82  8.1000000000000E-01  8.2121754413817E-01  9.6766241334951E-01
    83  8.2000000000000E-01  7.8862291111669E-01  1.0001523108903E+00
    84  8.3000000000000E-01  7.5577968550124E-01  1.0315976497834E+00
    85  8.4000000000000E-01  7.2274407253932E-01  1.0619814400167E+00
    86  8.5000000000000E-01  6.8957226602033E-01  1.0912885151736E+00
    87  8.6000000000000E-01  6.5632041786635E-01  1.1195049981990E+00
    88  8.7000000000000E-01  6.2304460333599E-01  1.1466177763481E+00
    89  8.8000000000000E-01  5.8980078025424E-01  1.1726139930776E+00
    90  8.9000000000000E-01  5.5664474083194E-01  1.1974805640108E+00
    91  9.0000000000000E-01  5.2363205482804E-01  1.2212037233409E+00
    92  9.1000000000000E-01  4.9081800303344E-01  1.2437686061247E+00
    93  9.2000000000000E-01  4.5825750031405E-01  1.2651588708823E+00
    94  9.3000000000000E-01  4.2600500774029E-01  1.2853563657659E+00
    95  9.4000000000000E-01  3.9411443364570E-01  1.3043408403110E+00
    96  9.5000000000000E-01  3.6263902379541E-01  1.3220897034501E+00
    97  9.6000000000000E-01  3.3163124120028E-01  1.3385778270745E+00
    98  9.7000000000000E-01  3.0114263648011E-01  1.3537773929884E+00
    99  9.8000000000000E-01  2.7122371005364E-01  1.3676577796417E+00
   100  9.9000000000000E-01  2.4192376780867E-01  1.3801854835626E+00
   101  1.0000000000000E+00  2.1329077227634E-01  1.3913240689736E+00
   102  1.0100000000000E+00  1.8537119169450E-01  1.4010341376770E+00
   103  1.0200000000000E+00  1.5820984968923E-01  1.4092733099655E+00
   104  1.0300000000000E+00  1.3184977862544E-01  1.4159962060722E+00
   105  1.0400000000000E+00  1.0633207997278E-01  1.4211544165373E+00
   106  1.0500000000000E+00  8.1695795294776E-02  1.4246964488661E+00
   107  1.0600000000000E+00  5.7977791693093E-02  1.4265676369876E+00
   108  1.0700000000000E+00  3.5212665718545E-02  1.4267099991549E+00
   109  1.0800000000000E+00  1.3432669919258E-02  1.4250620306266E+00
   110  1.0900000000000E+00 -7.3323338252338E-03  1.4215584135776E+00
   111  1.1000000000000E+00 -2.7054871491051E-02  1.4161310582230E+00
   112  1.1100000000000E+00 -4.5709842836592E-02  1.4087153885147E+00
   113  1.1200000000000E+00 -6.3274722074199E-02  1.3992543819633E+00
   114  1.1300000000000E+00 -7.9729847561598E-02  1.3876997484223E+00
   115  1.1400000000000E+00 -9.5058699766626E-02  1.3740129866356E+00
   116  1.1500000000000E+00 -1.0924816199989E-01  1.3581663560435E+00
   117  1.1600000000000E+00 -1.2228875987087E-01  1.3401437557491E+00
   118  1.1700000000000E+00 -1.3417487580109E-01  1.3199414981342E+00
   119  1.1800000000000E+00 -1.4490493521518E-01  1.2975689657155E+00
   120  1.1900000000000E+00 -1.5448156135503E-01  1.2730491410479E+00
   121  1.2000000000000E+00 -1.6291169602655E-01  1.2464190008401E+00
   122  1.2100000000000E+00 -1.7020668398241E-01  1.2177297669192E+00
   123  1.2200000000000E+00 -1.7638231906751E-01  1.1870470082642E+00
   124  1.2300000000000E+00 -1.8145885070187E-01  1.1544505900034E+00
   125  1.2400000000000E+00 -1.8546094973903E-01  1.1200344670051E+00
   126  1.2500000000000E+00 -1.8841763321952E-01  1.0839063214947E+00
   127  1.2600000000000E+00 -1.9036214802553E-01  1.0461870459530E+00
   128  1.2700000000000E+00 -1.9133181393213E-01  1.0070100743803E+00
   129  1.2800000000000E+00 -1.9136782703988E-01  9.6652056684083E-01
   130  1.2900000000000E+00 -1.9051502505122E-01  9.2487445398463E-01
   131  1.3000000000000E+00 -1.8882161631730E-01  8.8223734996694E-01
   132  1.3100000000000E+00 -1.8633887502802E-01  8.3878334384298E-01
   133  1.3200000000000E+00 -1.8312080533824E-01  7.9469368106610E-01
   134  1.3300000000000E+00 -1.7922377761022E-01  7.5015534813405E-01
   135  1.3400000000000E+00 -1.7470614031023E-01  7.0535957473301E-01
   136  1.3500000000000E+00 -1.6962781140987E-01  6.6050026885506E-01
   137  1.3600000000000E+00 -1.6404985341549E-01  6.1577240133042E-01
   138  1.3700000000000E+00 -1.5803403637230E-01  5.7137035699262E-01
   139  1.3800000000000E+00 -1.5164239336519E-01  5.2748627028029E-01
   140  1.3900000000000E+00 -1.4493677315949E-01  4.8430836345479E-01
   141  1.4000000000000E+00 -1.3797839469225E-01  4.4201930578062E-01
   142  1.4100000000000E+00 -1.3082740813715E-01  4.0079461196838E-01
   143  1.4200000000000E+00 -1.2354246722226E-01  3.6080109791589E-01
   144  1.4300000000000E+00 -1.1618031738010E-01  3.2219541130393E-01
   145  1.4400000000000E+00 -1.0879540415566E-01  2.8512265391479E-01
   146  1.4500000000000E+00 -1.0143950608985E-01  2.4971511164753E-01
   147  1.4600000000000E+00 -9.4161396037950E-02  2.1609110711648E-01
   148  1.4700000000000E+00 -8.7006534575810E-02  1.8435398845001E-01
   149  1.4800000000000E+00 -8.0016798794376E-02  1.5459126646193E-01
   150  1.4900000000000E+00 -7.3230249391617E-02  1.2687391077741E-01
   151  1.5000000000000E+00 -6.6680938542149E-02  1.0125581376479E-01
   152  1.5100000000000E+00 -6.0398760565278E-02  7.7773429280114E-02
   153  1.5200000000000E+00 -5.4409346926747E-02  5.6445591292073E-02
   154  1.5300000000000E+00 -4.8734006602947E-02  3.7273515440639E-02
   155  1.5400000000000E+00 -4.3389712318890E-02  2.0240984531700E-02
   156  1.5500000000000E+00 -3.8389132640575E-02  5.3147168744803E-03
   157  1.5600000000000E+00 -3.3740709375056E-02 -7.5550857075599E-03
   158  1.5700000000000E+00 -2.9448779206197E-02 -1.8434015423212E-02
   159  1.5800000000000E+00 -2.5513737980561E-02 -2.7402568857868E-02
   160  1.5900000000000E+00 -2.1932245561438E-02 -3.4555099292603E-02
   161  1.6000000000000E+00 -1.8697468695870E-02 -3.9998622014784E-02
   162  1.6100000000000E+00 -1.5799358895284E-02 -4.3851485358416E-02
   163  1.6200000000000E+00 -1.3224961920520E-02 -4.6241921794286E-02
   164  1.6300000000000E+00 -1.0958755091582E-02 -4.7306494813310E-02
   165  1.6400000000000E+00 -8.9830083159126E-03 -4.7188458593777E-02
   166  1.6500000000000E+00 -7.2781644503981E-03 -4.6036048499219E-02
   167  1.6600000000000E+00 -5.8232343851631E-03 -4.4000721305203E-02
   168  1.6700000000000E+00 -4.5962020642417E-03 -4.1235364689789E-02
   169  1.6800000000000E+00 -3.5744345417078E-03 -3.7892495935730E-02
   170  1.6900000000000E+00 -2.7350909588717E-03 -3.4122473674746E-02
   171  1.7000000000000E+00 -2.0555377876371E-03 -3.0071703493355E-02
   172  1.7100000000000E+00 -1.5137079205803E-03 -2.5881039483723E-02
   173  1.7200000000000E+00 -1.0888979976113E-03 -2.1682815123596E-02
   174  1.7300000000000E+00 -7.6421913651493E-04 -1.7592512772629E-02
   175  1.7400000000000E+00 -5.2191254604133E-04 -1.3723384203787E-02
   176  1.7500000000000E+00 -3.4458505288763E-04 -1.0182297730357E-02
   177  1.7600000000000E+00 -2.1732242620054E-04 -7.0627052988645E-03
   178  1.7700000000000E+00 -1.2774381829415E-04 -4.4441776032320E-03
   179  1.7800000000000E+00 -6.6307097876737E-05 -2.3921562446470E-03
   180  1.7900000000000E+00 -2.6222544283113E-05 -9.4775678064080E-04
   181  1.8000000000000E+00 -5.0365336710339E-06 -1.7449357512040E-04
   182  1.8100000000000E+00  4.7898241988414E-07  1.8080116484157E-05
   183  1.8200000000000E+00 -1.0947501704674E-07 -4.0231426955322E-06
   184  1.83  0.  0.
   185  1.84  0. -0.
   186  1.85  0. -0.
   187  1.86  0.  0.
   188  1.87  0.  0.
   189  1.88  0.  0.
   190  1.89  0.  0.
   191  1.90  0.  0.
   192  1.91  0.  0.
   193  1.92  0.  0.
   194  1.93  0.  0.
   195  1.94  0.  0.
   196  1.95  0.  0.
   197  1.96  0.  0.
   198  1.97  0.  0.
   199  1.98  0.  0.
   200  1.99  0.  0.
   201  2.00  0.  0.
   202  2.01  0.  0.
   203  2.02  0.  0.
   204  2.03  0.  0.
   205  2.04  0.  0.
   206  2.05  0.  0.
   207  2.06  0.  0.
   208  2.07  0.  0.
   209  2.08  0.  0.
   210  2.09  0.  0.
   211  2.10  0.  0.
   212  2.11  0.  0.
   213  2.12  0.  0.
   214  2.13  0.  0.
   215  2.14  0.  0.
   216  2.15  0.  0.
   217  2.16  0.  0.
   218  2.17  0.  0.
   219  2.18  0.  0.
   220  2.19  0.  0.
   221  2.20  0.  0.
   222  2.21  0.  0.
   223  2.22  0.  0.
   224  2.23  0.  0.
   225  2.24  0.  0.
   226  2.25  0.  0.
   227  2.26  0.  0.
   228  2.27  0.  0.
   229  2.28  0.  0.
   230  2.29  0.  0.
   231  2.30  0.  0.
   232  2.31  0.  0.
   233  2.32  0.  0.
   234  2.33  0.  0.
   235  2.34  0.  0.
   236  2.35  0.  0.
   237  2.36  0.  0.
   238  2.37  0.  0.
   239  2.38  0.  0.
   240  2.39  0.  0.
   241  2.40  0.  0.
   242  2.41  0.  0.
   243  2.42  0.  0.
   244  2.43  0.  0.
   245  2.44  0.  0.
   246  2.45  0.  0.
   247  2.46  0.  0.
   248  2.47  0.  0.
   249  2.48  0.  0.
   250  2.49  0.  0.
   251  2.50  0.  0.
   252  2.51  0.  0.
   253  2.52  0.  0.
   254  2.53  0.  0.
   255  2.54  0.  0.
   256  2.55  0.  0.
   257  2.56  0.  0.
   258  2.57  0.  0.
   259  2.58  0.  0.
   260  2.59  0.  0.
   261  2.60  0.  0.
   262  2.61  0.  0.
   263  2.62  0.  0.
   264  2.63  0.  0.
   265  2.64  0.  0.
   266  2.65  0.  0.
   267  2.66  0.  0.
   268  2.67  0.  0.
   269  2.68  0.  0.
   270  2.69  0.  0.
   271  2.70  0.  0.
   272  2.71  0.  0.
   273  2.72  0.  0.
   274  2.73  0.  0.
   275  2.74  0.  0.
   276  2.75  0.  0.
   277  2.76  0.  0.
   278  2.77  0.  0.
   279  2.78  0.  0.
   280  2.79  0.  0.
   281  2.80  0.  0.
   282  2.81  0.  0.
   283  2.82  0.  0.
   284  2.83  0.  0.
   285  2.84  0.  0.
   286  2.85  0.  0.
   287  2.86  0.  0.
   288  2.87  0.  0.
   289  2.88  0.  0.
   290  2.89  0.  0.
   291  2.90  0.  0.
   292  2.91  0.  0.
   293  2.92  0.  0.
   294  2.93  0.  0.
   295  2.94  0.  0.
   296  2.95  0.  0.
   297  2.96  0.  0.
   298  2.97  0.  0.
   299  2.98  0.  0.
   300  2.99  0.  0.
   301  3.00  0.  0.
   302  3.01  0.  0.
   303  3.02  0.  0.
   304  3.03  0.  0.
   305  3.04  0.  0.
   306  3.05  0.  0.
   307  3.06  0.  0.
   308  3.07  0.  0.
   309  3.08  0.  0.
   310  3.09  0.  0.
   311  3.10  0.  0.
   312  3.11  0.  0.
   313  3.12  0.  0.
   314  3.13  0.  0.
   315  3.14  0.  0.
   316  3.15  0.  0.
   317  3.16  0.  0.
   318  3.17  0.  0.
   319  3.18  0.  0.
   320  3.19  0.  0.
   321  3.20  0.  0.
   322  3.21  0.  0.
   323  3.22  0.  0.
   324  3.23  0.  0.
   325  3.24  0.  0.
   326  3.25  0.  0.
   327  3.26  0.  0.
   328  3.27  0.  0.
   329  3.28  0.  0.
   330  3.29  0.  0.
   331  3.30  0.  0.
   332  3.31  0.  0.
   333  3.32  0.  0.
   334  3.33  0.  0.
   335  3.34  0.  0.
   336  3.35  0.  0.
   337  3.36  0.  0.
   338  3.37  0.  0.
   339  3.38  0.  0.
   340  3.39  0.  0.
   341  3.40  0.  0.
   342  3.41  0.  0.
   343  3.42  0.  0.
   344  3.43  0.  0.
   345  3.44  0.  0.
   346  3.45  0.  0.
   347  3.46  0.  0.
   348  3.47  0.  0.
   349  3.48  0.  0.
   350  3.49  0.  0.
   351  3.50  0.  0.
   352  3.51  0.  0.
   353  3.52  0.  0.
   354  3.53  0.  0.
   355  3.54  0.  0.
   356  3.55  0.  0.
   357  3.56  0.  0.
   358  3.57  0.  0.
   359  3.58  0.  0.
   360  3.59  0.  0.
   361  3.60  0.  0.
   362  3.61  0.  0.
   363  3.62  0.  0.
   364  3.63  0.  0.
   365  3.64  0.  0.
   366  3.65  0.  0.
   367  3.66  0.  0.
   368  3.67  0.  0.
   369  3.68  0.  0.
   370  3.69  0.  0.
   371  3.70  0.  0.
   372  3.71  0.  0.
   373  3.72  0.  0.
   374  3.73  0.  0.
   375  3.74  0.  0.
   376  3.75  0.  0.
   377  3.76  0.  0.
   378  3.77  0.  0.
   379  3.78  0.  0.
   380  3.79  0.  0.
   381  3.80  0.  0.
   382  3.81  0.  0.
   383  3.82  0.  0.
   384  3.83  0.  0.
   385  3.84  0.  0.
   386  3.85  0.  0.
   387  3.86  0.  0.
   388  3.87  0.  0.
   389  3.88  0.  0.
   390  3.89  0.  0.
   391  3.90  0.  0.
   392  3.91  0.  0.
   393  3.92  0.  0.
   394  3.93  0.  0.
   395  3.94  0.  0.
   396  3.95  0.  0.
   397  3.96  0.  0.
   398  3.97  0.  0.
   399  3.98  0.  0.
   400  3.99  0.  0.
   401  4.00  0.  0.
   402  4.01  0.  0.
   403  4.02  0.  0.
   404  4.03  0.  0.
   405  4.04  0.  0.
   406  4.05  0.  0.
   407  4.06  0.  0.
   408  4.07  0.  0.
   409  4.08  0.  0.
   410  4.09  0.  0.
   411  4.10  0.  0.
   412  4.11  0.  0.
   413  4.12  0.  0.
   414  4.13  0.  0.
   415  4.14  0.  0.
   416  4.15  0.  0.
   417  4.16  0.  0.
   418  4.17  0.  0.
   419  4.18  0.  0.
   420  4.19  0.  0.
   421  4.20  0.  0.
   422  4.21  0.  0.
   423  4.22  0.  0.
   424  4.23  0.  0.
   425  4.24  0.  0.
   426  4.25  0.  0.
   427  4.26  0.  0.
   428  4.27  0.  0.
   429  4.28  0.  0.
   430  4.29  0.  0.
   431  4.30  0.  0.
   432  4.31  0.  0.
   433  4.32  0.  0.
   434  4.33  0.  0.
   435  4.34  0.  0.
   436  4.35  0.  0.
   437  4.36  0.  0.
   438  4.37  0.  0.
   439  4.38  0.  0.
   440  4.39  0.  0.
   441  4.40  0.  0.
   442  4.41  0.  0.
   443  4.42  0.  0.
   444  4.43  0.  0.
   445  4.44  0.  0.
   446  4.45  0.  0.
   447  4.46  0.  0.
   448  4.47  0.  0.
   449  4.48  0.  0.
   450  4.49  0.  0.
   451  4.50  0.  0.
   452  4.51  0.  0.
   453  4.52  0.  0.
   454  4.53  0.  0.
   455  4.54  0.  0.
   456  4.55  0.  0.
   457  4.56  0.  0.
   458  4.57  0.  0.
   459  4.58  0.  0.
   460  4.59  0.  0.
   461  4.60  0.  0.
   462  4.61  0.  0.
   463  4.62  0.  0.
   464  4.63  0.  0.
   465  4.64  0.  0.
   466  4.65  0.  0.
   467  4.66  0.  0.
   468  4.67  0.  0.
   469  4.68  0.  0.
   470  4.69  0.  0.
   471  4.70  0.  0.
   472  4.71  0.  0.
   473  4.72  0.  0.
   474  4.73  0.  0.
   475  4.74  0.  0.
   476  4.75  0.  0.
   477  4.76  0.  0.
   478  4.77  0.  0.
   479  4.78  0.  0.
   480  4.79  0.  0.
   481  4.80  0.  0.
   482  4.81  0.  0.
   483  4.82  0.  0.
   484  4.83  0.  0.
   485  4.84  0.  0.
   486  4.85  0.  0.
   487  4.86  0.  0.
   488  4.87  0.  0.
   489  4.88  0.  0.
   490  4.89  0.  0.
   491  4.90  0.  0.
   492  4.91  0.  0.
   493  4.92  0.  0.
   494  4.93  0.  0.
   495  4.94  0.  0.
   496  4.95  0.  0.
   497  4.96  0.  0.
   498  4.97  0.  0.
   499  4.98  0.  0.
   500  4.99  0.  0.
   501  5.00  0.  0.
   502  5.01  0.  0.
   503  5.02  0.  0.
   504  5.03  0.  0.
   505  5.04  0.  0.
   506  5.05  0.  0.
   507  5.06  0.  0.
   508  5.07  0.  0.
   509  5.08  0.  0.
   510  5.09  0.  0.
   511  5.10  0.  0.
   512  5.11  0.  0.
   513  5.12  0.  0.
   514  5.13  0.  0.
   515  5.14  0.  0.
   516  5.15  0.  0.
   517  5.16  0.  0.
   518  5.17  0.  0.
   519  5.18  0.  0.
   520  5.19  0.  0.
   521  5.20  0.  0.
   522  5.21  0.  0.
   523  5.22  0.  0.
   524  5.23  0.  0.
   525  5.24  0.  0.
   526  5.25  0.  0.
   527  5.26  0.  0.
   528  5.27  0.  0.
   529  5.28  0.  0.
   530  5.29  0.  0.
   531  5.30  0.  0.
   532  5.31  0.  0.
   533  5.32  0.  0.
   534  5.33  0.  0.
   535  5.34  0.  0.
   536  5.35  0.  0.
   537  5.36  0.  0.
   538  5.37  0.  0.
   539  5.38  0.  0.
   540  5.39  0.  0.
   541  5.40  0.  0.
   542  5.41  0.  0.
   543  5.42  0.  0.
   544  5.43  0.  0.
   545  5.44  0.  0.
   546  5.45  0.  0.
   547  5.46  0.  0.
   548  5.47  0.  0.
   549  5.48  0.  0.
   550  5.49  0.  0.
   551  5.50  0.  0.
   552  5.51  0.  0.
   553  5.52  0.  0.
   554  5.53  0.  0.
   555  5.54  0.  0.
   556  5.55  0.  0.
   557  5.56  0.  0.
   558  5.57  0.  0.
   559  5.58  0.  0.
   560  5.59  0.  0.
   561  5.60  0.  0.
   562  5.61  0.  0.
   563  5.62  0.  0.
   564  5.63  0.  0.
   565  5.64  0.  0.
   566  5.65  0.  0.
   567  5.66  0.  0.
   568  5.67  0.  0.
   569  5.68  0.  0.
   570  5.69  0.  0.
   571  5.70  0.  0.
   572  5.71  0.  0.
   573  5.72  0.  0.
   574  5.73  0.  0.
   575  5.74  0.  0.
   576  5.75  0.  0.
   577  5.76  0.  0.
   578  5.77  0.  0.
   579  5.78  0.  0.
   580  5.79  0.  0.
   581  5.80  0.  0.
   582  5.81  0.  0.
   583  5.82  0.  0.
   584  5.83  0.  0.
   585  5.84  0.  0.
   586  5.85  0.  0.
   587  5.86  0.  0.
   588  5.87  0.  0.
   589  5.88  0.  0.
   590  5.89  0.  0.
   591  5.90  0.  0.
   592  5.91  0.  0.
   593  5.92  0.  0.
   594  5.93  0.  0.
   595  5.94  0.  0.
   596  5.95  0.  0.
   597  5.96  0.  0.
   598  5.97  0.  0.
   599  5.98  0.  0.
   600  5.99  0.  0.
   1                         4.3768555987099E+00  4.5974469279494E-01
     1  0.0000000000000E+00  4.4543202459835E-11 -1.6589418033730E-10
     2  1.0000000000000E-02  1.0872225850086E-03 -8.7814900111518E-04
     3  2.0000000000000E-02  4.3457325015100E-03 -3.5080345009836E-03
     4  3.0000000000000E-02  9.7660651972418E-03 -7.8759917202902E-03
     5  4.0000000000000E-02  1.7332476273398E-02 -1.3959311710307E-02
     6  5.0000000000000E-02  2.7022986187565E-02 -2.1726339574485E-02
     7  6.0000000000000E-02  3.8809442679009E-02 -3.1136611373154E-02
     8  7.0000000000000E-02  5.2657600757906E-02 -4.2141029109839E-02
     9  8.0000000000000E-02  6.8527220055570E-02 -5.4682073031835E-02
    10  9.0000000000000E-02  8.6372179288531E-02 -6.8694050315582E-02
    11  1.0000000000000E-01  1.0614060754580E-01 -8.4103379051124E-02
    12  1.1000000000000E-01  1.2777503206578E-01 -1.0082890628889E-01
    13  1.2000000000000E-01  1.5121254212704E-01 -1.1878225876837E-01
    14  1.3000000000000E-01  1.7638496863607E-01 -1.3786822481155E-01
    15  1.4000000000000E-01  2.0321907895445E-01 -1.5798516573571E-01
    16  1.5000000000000E-01  2.3163678646879E-01 -1.7902545502021E-01
    17  1.6000000000000E-01  2.6155537436803E-01 -2.0087594335151E-01
    18  1.7000000000000E-01  2.9288773305579E-01 -2.2341844756935E-01
    19  1.8000000000000E-01  3.2554261058898E-01 -2.4653026144611E-01
    20  1.9000000000000E-01  3.5942487549909E-01 -2.7008468615011E-01
    21  2.0000000000000E-01  3.9443579131879E-01 -2.9395157817313E-01
    22  2.1000000000000E-01  4.3047330210391E-01 -3.1799791244213E-01
    23  2.2000000000000E-01  4.6743232820958E-01 -3.4208835828517E-01
    24  2.3000000000000E-01  5.0520507154937E-01 -3.6608586588207E-01
    25  2.4000000000000E-01  5.4368132953772E-01 -3.8985226080129E-01
    26  2.5000000000000E-01  5.8274881688815E-01 -4.1324884420473E-01
    27  2.6000000000000E-01  6.2229349441425E-01 -4.3613699629280E-01
    28  2.7000000000000E-01  6.6219990395517E-01 -4.5837878056197E-01
    29  2.8000000000000E-01  7.0235150852430E-01 -4.7983754645516E-01
    30  2.9000000000000E-01  7.4263103675766E-01 -5.0037852800317E-01
    31  3.0000000000000E-01  7.8292083071777E-01 -5.1986943608013E-01
    32  3.1000000000000E-01  8.2310319608973E-01 -5.3818104192898E-01
    33  3.2000000000000E-01  8.6306075378808E-01 -5.5518774965274E-01
    34  3.3000000000000E-01  9.0267679197704E-01 -5.7076815541382E-01
    35  3.4000000000000E-01  9.4183561749159E-01 -5.8480559113573E-01
    36  3.5000000000000E-01  9.8042290563367E-01 -5.9718865055963E-01
    37  3.6000000000000E-01  1.0183260473064E+00 -6.0781169557073E-01
    38  3.7000000000000E-01  1.0554344924393E+00 -6.1657534077711E-01
    39  3.8000000000000E-01  1.0916400886489E+00 -6.2338691439476E-01
    40  3.9000000000000E-01  1.1268374140746E+00 -6.2816089356798E-01
    41  4.0000000000000E-01  1.1609241033240E+00 -6.3081931233272E-01
    42  4.1000000000000E-01  1.1938011654621E+00 -6.3129214051219E-01
    43  4.2000000000000E-01  1.2253732929770E+00 -6.2951763191865E-01
    44  4.3000000000000E-01  1.2555491606616E+00 -6.2544264032300E-01
    45  4.4000000000000E-01  1.2842417133530E+00 -6.1902290174350E-01
    46  4.5000000000000E-01  1.3113684414846E+00 -6.1022328169838E-01
    47  4.6000000000000E-01  1.3368516434136E+00 -5.9901798616264E-01
    48  4.7000000000000E-01  1.3606186735069E+00 -5.8539073506814E-01
    49  4.8000000000000E-01  1.3826021749840E+00 -5.6933489728824E-01
    50  4.9000000000000E-01  1.4027402965413E+00 -5.5085358615375E-01
    51  5.0000000000000E-01  1.4209768918083E+00 -5.2995971465616E-01
    52  5.1000000000000E-01  1.4372617007178E+00 -5.0667600960819E-01
    53  5.2000000000000E-01  1.4515505119086E+00 -4.8103498414965E-01
    54  5.3000000000000E-01  1.4638053053214E+00 -4.5307886811063E-01
    55  5.4000000000000E-01  1.4739943741910E+00 -4.2285949587269E-01
    56  5.5000000000000E-01  1.4820924256941E+00 -3.9043815150477E-01
    57  5.6000000000000E-01  1.4880806595627E+00 -3.5588537109219E-01
    58  5.7000000000000E-01  1.4919468240394E+00 -3.1928070232648E-01
    59  5.8000000000000E-01  1.4936852486158E+00 -2.8071242158088E-01
    60  5.9000000000000E-01  1.4932968530678E+00 -2.4027720886056E-01
    61  6.0000000000000E-01  1.4907891323822E+00 -1.9807978119097E-01
    62  6.1000000000000E-01  1.4861761172496E+00 -1.5423248518820E-01
    63  6.2000000000000E-01  1.4794783098921E+00 -1.0885484974709E-01
    64  6.3000000000000E-01  1.4707225950851E+00 -6.2073099981484E-02
    65  6.4000000000000E-01  1.4599421263367E+00 -1.4019633759945E-02
    66  6.5000000000000E-01  1.4471761872896E+00  3.5167537603235E-02
    67  6.6000000000000E-01  1.4324700285231E+00  8.5345382716300E-02
    68  6.7000000000000E-01  1.4158746800461E+00  1.3636647551887E-01
    69  6.8000000000000E-01  1.3974467398892E+00  1.8807965047236E-01
    70  6.9000000000000E-01  1.3772481393282E+00  2.4033068502585E-01
    71  7.0000000000000E-01  1.3553458853942E+00  2.9296300659840E-01
    72  7.1000000000000E-01  1.3318117814531E+00  3.4581842106212E-01
    73  7.2000000000000E-01  1.3067221267676E+00  3.9873785944921E-01
    74  7.3000000000000E-01  1.2801573960845E+00  4.5156213934449E-01
    75  7.4000000000000E-01  1.2522019004194E+00  5.0413273716148E-01
    76  7.5000000000000E-01  1.2229434303451E+00  5.5629256723944E-01
    77  7.6000000000000E-01  1.1924728832144E+00  6.0788676343956E-01
    78  7.7000000000000E-01  1.1608838758808E+00  6.5876345866635E-01
    79  7.8000000000000E-01  1.1282723445996E+00  7.0877455749263E-01
    80  7.9000000000000E-01  1.0947361339180E+00  7.5777649683060E-01
    81  8.0000000000000E-01  1.0603745764756E+00  8.0563098936481E-01
    82  8.1000000000000E-01  1.0252880657482E+00  8.5220574425044E-01
    83  8.2000000000000E-01  9.8957762387383E-01  8.9737515938380E-01
    84  8.3000000000000E-01  9.5334446679511E-01  9.4102097937234E-01
    85  8.4000000000000E-01  9.1668956904254E-01  9.8303291317264E-01
    86  8.5000000000000E-01  8.7971323056273E-01  1.0233092052275E+00
    87  8.6000000000000E-01  8.4251464806656E-01  1.0617571538202E+00
    88  8.7000000000000E-01  8.0519149343208E-01  1.0982935702766E+00
    89  8.8000000000000E-01  7.6783950174600E-01  1.1328451725863E+00
    90  8.9000000000000E-01  7.3055207160477E-01  1.1653489069831E+00
    91  9.0000000000000E-01  6.9341988032130E-01  1.1957521910260E+00
    92  9.1000000000000E-01  6.5653051669549E-01  1.2240130717535E+00
    93  9.2000000000000E-01  6.1996813400595E-01  1.2501002925478E+00
    94  9.3000000000000E-01  5.8381312586594E-01  1.2739932624464E+00
    95  9.4000000000000E-01  5.4814182755864E-01  1.2956819217678E+00
    96  9.5000000000000E-01  5.1302624542531E-01  1.3151664980876E+00
    97  9.6000000000000E-01  4.7853381682464E-01  1.3324571467993E+00
    98  9.7000000000000E-01  4.4472720311266E-01  1.3475734707316E+00
    99  9.8000000000000E-01  4.1166411801025E-01  1.3605439135601E+00
   100  9.9000000000000E-01  3.7939719363008E-01  1.3714050220529E+00
   101  1.0000000000000E+00  3.4797388632668E-01  1.3802005725217E+00
   102  1.0100000000000E+00  3.1743642441301E-01  1.3869805572107E+00
   103  1.0200000000000E+00  2.8782179965545E-01  1.3918000267462E+00
   104  1.0300000000000E+00  2.5916180431597E-01  1.3947177851884E+00
   105  1.0400000000000E+00  2.3148311535781E-01  1.3957949346636E+00
   106  1.0500000000000E+00  2.0480742726845E-01  1.3950932670213E+00
   107  1.0600000000000E+00  1.7915163478362E-01  1.3926735004429E+00
   108  1.0700000000000E+00  1.5452806660010E-01  1.3885933591830E+00
   109  1.0800000000000E+00  1.3094477110802E-01  1.3829054968523E+00
   110  1.0900000000000E+00  1.0840585454543E-01  1.3756552592062E+00
   111  1.1000000000000E+00  8.6912006764782E-02  1.3668802901101E+00
   112  1.1100000000000E+00  6.6461431489360E-02  1.3566175171082E+00
   113  1.1200000000000E+00  4.7050256981827E-02  1.3449070755553E+00