Ar    ONCVPSP-4.0.1  r_core=   1.91046   1.82118   1.91046
     18.0000      8.0000      230118    zatom,zion,pspd
     8       2   2     4   400     0    pspcod,pspxc,lmax,lloc,mmax,r2well
  3.99000000  7.00000000  0.00000000    rchrg fchrg qchrg
     2     2     2     0     0    nproj
     1     1           extension_switch
   0                         5.4553227278481E+00  6.4641724841235E-01
     1  0.0000000000000E+00  1.6885609577244E-10 -4.4137739296790E-10
     2  1.0000000000000E-02  5.3302469959247E-02 -1.5068482269769E-02
     3  2.0000000000000E-02  1.0654607690833E-01 -3.0117250995960E-02
     4  3.0000000000000E-02  1.5967181699262E-01 -4.5126059073342E-02
     5  4.0000000000000E-02  2.1262040798230E-01 -6.0073601058872E-02
     6  5.0000000000000E-02  2.6533215832555E-01 -7.4937005852759E-02
     7  6.0000000000000E-02  3.1774684596942E-01 -8.9691355282260E-02
     8  7.0000000000000E-02  3.6980361000353E-01 -1.0430923669799E-01
     9  8.0000000000000E-02  4.2144085801320E-01 -1.1876033725108E-01
    10  9.0000000000000E-02  4.7259619182092E-01 -1.3301108697816E-01
    11  1.0000000000000E-01  5.2320635405283E-01 -1.4702435718591E-01
    12  1.1000000000000E-01  5.7320719769017E-01 -1.6075921990644E-01
    13  1.2000000000000E-01  6.2253368046095E-01 -1.7417077339666E-01
    14  1.3000000000000E-01  6.7111988559547E-01 -1.8721003779012E-01
    15  1.4000000000000E-01  7.1889907011658E-01 -1.9982392408817E-01
    16  1.5000000000000E-01  7.6580374146502E-01 -2.1195527871066E-01
    17  1.6000000000000E-01  8.1176576287675E-01 -2.2354300482592E-01
    18  1.7000000000000E-01  8.5671648753784E-01 -2.3452226065905E-01
    19  1.8000000000000E-01  9.0058692114699E-01 -2.4482473394752E-01
    20  1.9000000000000E-01  9.4330791212241E-01 -2.5437899068776E-01
    21  2.0000000000000E-01  9.8481036830229E-01 -2.6311089530856E-01
    22  2.1000000000000E-01  1.0250254986117E+00 -2.7094409842761E-01
    23  2.2000000000000E-01  1.0638850778080E+00 -2.7780058741147E-01
    24  2.3000000000000E-01  1.1013217320770E+00 -2.8360129407523E-01
    25  2.4000000000000E-01  1.1372692429358E+00 -2.8826675304010E-01
    26  2.5000000000000E-01  1.1716628666094E+00 -2.9171780352354E-01
    27  2.6000000000000E-01  1.2044396657974E+00 -2.9387632667794E-01
    28  2.7000000000000E-01  1.2355388505207E+00 -2.9466601002859E-01
    29  2.8000000000000E-01  1.2649021245632E+00 -2.9401313009673E-01
    30  2.9000000000000E-01  1.2924740338769E+00 -2.9184734393628E-01
    31  3.0000000000000E-01  1.3182023132260E+00 -2.8810248006664E-01
    32  3.1000000000000E-01  1.3420382272875E+00 -2.8271731915429E-01
    33  3.2000000000000E-01  1.3639369024194E+00 -2.7563635478385E-01
    34  3.3000000000000E-01  1.3838576453433E+00 -2.6681052476575E-01
    35  3.4000000000000E-01  1.4017642450699E+00 -2.5619790365301E-01
    36  3.5000000000000E-01  1.4176252545231E+00 -2.4376434748077E-01
    37  3.6000000000000E-01  1.4314142484887E+00 -2.2948408219631E-01
    38  3.7000000000000E-01  1.4431100547226E+00 -2.1334022780985E-01
    39  3.8000000000000E-01  1.4526969553088E+00 -1.9532525096046E-01
    40  3.9000000000000E-01  1.4601648556401E+00 -1.7544133935030E-01
    41  4.0000000000000E-01  1.4655094187194E+00 -1.5370069234573E-01
    42  4.1000000000000E-01  1.4687321628285E+00 -1.3012572296478E-01
    43  4.2000000000000E-01  1.4698405209869E+00 -1.0474916745814E-01
    44  4.3000000000000E-01  1.4688478610248E+00 -7.7614099732450E-02
    45  4.4000000000000E-01  1.4657734655054E+00 -4.8773848948230E-02
    46  4.5000000000000E-01  1.4606424711630E+00 -1.8291819738762E-02
    47  4.6000000000000E-01  1.4534857679548E+00  1.3758784374831E-02
    48  4.7000000000000E-01  1.4443398582629E+00  4.7295332664152E-02
    49  4.8000000000000E-01  1.4332466772157E+00  8.2226231140098E-02
    50  4.9000000000000E-01  1.4202533755244E+00  1.1845147483861E-01
    51  5.0000000000000E-01  1.4054120666402E+00  1.5586328345887E-01
    52  5.1000000000000E-01  1.3887795404351E+00  1.9434681435832E-01
    53  5.2000000000000E-01  1.3704169459764E+00  2.3378094596303E-01
    54  5.3000000000000E-01  1.3503894463131E+00  2.7403912378054E-01
    55  5.4000000000000E-01  1.3287658484988E+00  3.1499026041735E-01
    56  5.5000000000000E-01  1.3056182123578E+00  3.5649968031377E-01
    57  5.6000000000000E-01  1.2810214417350E+00  3.9843009932407E-01
    58  5.7000000000000E-01  1.2550528621658E+00  4.4064262879794E-01
    59  5.8000000000000E-01  1.2277917890553E+00  4.8299779346615E-01
    60  5.9000000000000E-01  1.1993190905587E+00  5.2535655220444E-01
    61  6.0000000000000E-01  1.1697167494115E+00  5.6758131064826E-01
    62  6.1000000000000E-01  1.1390674279666E+00  6.0953691465992E-01
    63  6.2000000000000E-01  1.1074540406524E+00  6.5109161380874E-01
    64  6.3000000000000E-01  1.0749593379751E+00  6.9211798431382E-01
    65  6.4000000000000E-01  1.0416655060514E+00  7.3249380131495E-01
    66  6.5000000000000E-01  1.0076537854682E+00  7.7210285087609E-01
    67  6.6000000000000E-01  9.7300411303876E-01  8.1083567278324E-01
    68  6.7000000000000E-01  9.3779478974834E-01  8.4859022596513E-01
    69  6.8000000000000E-01  9.0210217787232E-01  8.8527246923558E-01
    70  6.9000000000000E-01  8.6600042989889E-01  9.2079685101910E-01
    71  7.0000000000000E-01  8.2956125150943E-01  9.5508670276563E-01
    72  7.1000000000000E-01  7.9285370046093E-01  9.8807453187535E-01
    73  7.2000000000000E-01  7.5594402278362E-01  1.0197022111276E+00
    74  7.3000000000000E-01  7.1889552725844E-01  1.0499210628234E+00
    75  7.4000000000000E-01  6.8176849867691E-01  1.0786918370977E+00
    76  7.5000000000000E-01  6.4462014991760E-01  1.1059845851199E+00
    77  7.6000000000000E-01  6.0750461240241E-01  1.1317784291610E+00
    78  7.7000000000000E-01  5.7047296403000E-01  1.1560612327542E+00
    79  7.8000000000000E-01  5.3357329322604E-01  1.1788291753933E+00
    80  7.9000000000000E-01  4.9685079730869E-01  1.2000862373844E+00
    81  8.0000000000000E-01  4.6034791294584E-01  1.2198436015817E+00
    82  8.1000000000000E-01  4.2410447608533E-01  1.2381189797794E+00
    83  8.2000000000000E-01  3.8815790837378E-01  1.2549358724868E+00
    84  8.3000000000000E-01  3.5254342674992E-01  1.2703227716715E+00
    85  8.4000000000000E-01  3.1729427260741E-01  1.2843123168063E+00
    86  8.5000000000000E-01  2.8244195667488E-01  1.2969404151833E+00
    87  8.6000000000000E-01  2.4801651555929E-01  1.3082453379636E+00
    88  8.7000000000000E-01  2.1404677574710E-01  1.3182668037994E+00
    89  8.8000000000000E-01  1.8056062075676E-01  1.3270450620929E+00
    90  8.9000000000000E-01  1.4758525708839E-01  1.3346199880437E+00
    91  9.0000000000000E-01  1.1514747462250E-01  1.3410302015709E+00
    92  9.1000000000000E-01  8.3273897180141E-02  1.3463122219921E+00
    93  9.2000000000000E-01  5.1991219071020E-02  1.3504996699832E+00
    94  9.3000000000000E-01  2.1326423623556E-02  1.3536225278483E+00
    95  9.4000000000000E-01 -8.6930200904549E-03  1.3557064684916E+00
    96  9.5000000000000E-01 -3.8038985855905E-02  1.3567722627164E+00
    97  9.6000000000000E-01 -6.6682547444040E-02  1.3568352735827E+00
    98  9.7000000000000E-01 -9.4593867119205E-02  1.3559050455487E+00
    99  9.8000000000000E-01 -1.2174211797355E-01  1.3539849950092E+00
   100  9.9000000000000E-01 -1.4809544210932E-01  1.3510722076403E+00
   101  1.0000000000000E+00 -1.7362094622716E-01  1.3471573466786E+00
   102  1.0100000000000E+00 -1.9828473569314E-01  1.3422246749139E+00
   103  1.0200000000000E+00 -2.2205198765284E-01  1.3362521917824E+00
   104  1.0300000000000E+00 -2.4488706324263E-01  1.3292118855152E+00
   105  1.0400000000000E+00 -2.6675365842392E-01  1.3210700988547E+00
   106  1.0500000000000E+00 -2.8761499244050E-01  1.3117880054038E+00
   107  1.0600000000000E+00 -3.0743403237909E-01  1.3013221922493E+00
   108  1.0700000000000E+00 -3.2617375180507E-01  1.2896253431044E+00
   109  1.0800000000000E+00 -3.4379742095547E-01  1.2766470148768E+00
   110  1.0900000000000E+00 -3.6026892550475E-01  1.2623344992938E+00
   111  1.1000000000000E+00 -3.7555311048343E-01  1.2466337600253E+00
   112  1.1100000000000E+00 -3.8961614552849E-01  1.2294904346549E+00
   113  1.1200000000000E+00 -4.0242590728473E-01  1.2108508898682E+00
   114  1.1300000000000E+00 -4.1395237446169E-01  1.1906633173741E+00
   115  1.1400000000000E+00 -4.2416803078559E-01  1.1688788573542E+00
   116  1.1500000000000E+00 -4.3304827087450E-01  1.1454527356666E+00
   117  1.1600000000000E+00 -4.4057180390972E-01  1.1203454006110E+00
   118  1.1700000000000E+00 -4.4672104988055E-01  1.0935236448055E+00
   119  1.1800000000000E+00 -4.5148252314450E-01  1.0649616976393E+00
   120  1.1900000000000E+00 -4.5484719807201E-01  1.0346422738403E+00
   121  1.2000000000000E+00 -4.5681085163422E-01  1.0025575639506E+00
   122  1.2100000000000E+00 -4.5737437794431E-01  9.6871015292025E-01
   123  1.2200000000000E+00 -4.5654406997541E-01  9.3311385361399E-01
   124  1.2300000000000E+00 -4.5433186395104E-01  8.9579444277592E-01
   125  1.2400000000000E+00 -4.5075554223387E-01  8.5679028789810E-01
   126  1.2500000000000E+00 -4.4583889092071E-01  8.1615285448544E-01
   127  1.2600000000000E+00 -4.3961180878761E-01  7.7394708439840E-01
   128  1.2700000000000E+00 -4.3211036470705E-01  7.3025163726176E-01
   129  1.2800000000000E+00 -4.2337680117938E-01  6.8515898834427E-01
   130  1.2900000000000E+00 -4.1345948217837E-01  6.3877537783516E-01
   131  1.3000000000000E+00 -4.0241278409480E-01  5.9122060803440E-01
   132  1.3100000000000E+00 -3.9029692916968E-01  5.4262768662768E-01
   133  1.3200000000000E+00 -3.7717776143612E-01  4.9314231592468E-01
   134  1.3300000000000E+00 -3.6312646582184E-01  4.4292222966181E-01
   135  1.3400000000000E+00 -3.4821923170074E-01  3.9213638070048E-01
   136  1.3500000000000E+00 -3.3253686281570E-01  3.4096398467596E-01
   137  1.3600000000000E+00 -3.1616433611453E-01  2.8959342633523E-01
   138  1.3700000000000E+00 -2.9919031264245E-01  2.3822103693803E-01
   139  1.3800000000000E+00 -2.8170660420845E-01  1.8704975265269E-01
   140  1.3900000000000E+00 -2.6380760008719E-01  1.3628766535872E-01
   141  1.4000000000000E+00 -2.4558965851978E-01  8.6146478629014E-02
   142  1.4100000000000E+00 -2.2715046823490E-01  3.6839882908904E-02
   143  1.4200000000000E+00 -2.0858838561816E-01 -1.1418134986575E-02
   144  1.4300000000000E+00 -1.9000175350780E-01 -5.8415031986437E-02
   145  1.4400000000000E+00 -1.7148820788554E-01 -1.0394148162700E-01
   146  1.4500000000000E+00 -1.5314397895598E-01 -1.4779316219437E-01
   147  1.4600000000000E+00 -1.3506319326579E-01 -1.8977254224638E-01
   148  1.4700000000000E+00 -1.1733718360143E-01 -2.2969064537615E-01
   149  1.4800000000000E+00 -1.0005381341954E-01 -2.6736877603642E-01
   150  1.4900000000000E+00 -8.3296822507596E-02 -3.0264018839662E-01
   151  1.5000000000000E+00 -6.7145200441378E-02 -3.3535168055701E-01
   152  1.5100000000000E+00 -5.1672594204506E-02 -3.6536509699000E-01
   153  1.5200000000000E+00 -3.6946756061756E-02 -3.9255872281687E-01
   154  1.5300000000000E+00 -2.3029037436997E-02 -4.1682855445061E-01
   155  1.5400000000000E+00 -9.9739341399057E-03 -4.3808943223520E-01
   156  1.5500000000000E+00  2.1713121821409E-03 -4.5627602197647E-01
   157  1.5600000000000E+00  1.3367052016141E-02 -4.7134363368097E-01
   158  1.5700000000000E+00  2.3581501603833E-02 -4.8326886737434E-01
   159  1.5800000000000E+00  3.2790949058222E-02 -4.9205007755686E-01
   160  1.5900000000000E+00  4.0979890486050E-02 -4.9770764964308E-01
   161  1.6000000000000E+00  4.8141094319983E-02 -5.0028408360858E-01
   162  1.6100000000000E+00  5.4275592784839E-02 -4.9984388201455E-01
   163  1.6200000000000E+00  5.9392600159946E-02 -4.9647324157463E-01
   164  1.6300000000000E+00  6.3509358247798E-02 -4.9027954945019E-01
   165  1.6400000000000E+00  6.6650910209266E-02 -4.8139068748651E-01
   166  1.6500000000000E+00  6.8849804669727E-02 -4.6995414961291E-01
   167  1.6600000000000E+00  7.0145732730627E-02 -4.5613597960159E-01
   168  1.6700000000000E+00  7.0585101229275E-02 -4.4011953829302E-01
   169  1.6800000000000E+00  7.0220546268236E-02 -4.2210411122739E-01
   170  1.6900000000000E+00  6.9110391677199E-02 -4.0230336935339E-01
   171  1.7000000000000E+00  6.7318057667666E-02 -3.8094369709770E-01
   172  1.7100000000000E+00  6.4911425487267E-02 -3.5826240355248E-01
   173  1.7200000000000E+00  6.1962164370271E-02 -3.3450583385862E-01
   174  1.7300000000000E+00  5.8545027508143E-02 -3.0992739901372E-01
   175  1.7400000000000E+00  5.4737124123846E-02 -2.8478554330244E-01
   176  1.7500000000000E+00  5.0617175022203E-02 -2.5934166932282E-01
   177  1.7600000000000E+00  4.6264759341963E-02 -2.3385804161084E-01
   178  1.7700000000000E+00  4.1759560041194E-02 -2.0859568912816E-01
   179  1.7800000000000E+00  3.7180612388744E-02 -1.8381231474040E-01
   180  1.7900000000000E+00  3.2605580295224E-02 -1.5976030275410E-01
   181  1.8000000000000E+00  2.8109933166958E-02 -1.3668434954322E-01
   182  1.8100000000000E+00  2.3765496716248E-02 -1.1481712034906E-01
   183  1.8200000000000E+00  1.9638089162910E-02 -9.4372956372323E-02
   184  1.8300000000000E+00  1.5784332850560E-02 -7.5540229605872E-02
   185  1.8400000000000E+00  1.2259889008204E-02 -5.8499622087349E-02
   186  1.8500000000000E+00  9.1149048607863E-03 -4.3413810251391E-02
   187  1.8600000000000E+00  6.3916758759639E-03 -3.0421988209818E-02
   188  1.8700000000000E+00  4.1244886541943E-03 -1.9639275469034E-02
   189  1.8800000000000E+00  2.3397680531991E-03 -1.1158374828526E-02
   190  1.8900000000000E+00  1.0505591274314E-03 -5.0234821198618E-03
   191  1.9000000000000E+00  2.7631825463752E-04 -1.3264884150161E-03
   192  1.9100000000000E+00  3.9198190117616E-06 -1.9012308702617E-05
   193  1.9200000000000E+00 -5.6684086229093E-06  2.7366089796399E-05
   194  1.9300000000000E+00  3.5680504325800E-06 -1.7166625662372E-05
   195  1.94 -0.  0.
   196  1.95  0. -0.
   197  1.96  0.  0.
   198  1.97  0.  0.
   199  1.98  0.  0.
   200  1.99  0.  0.
   201  2.00  0.  0.
   202  2.01  0.  0.
   203  2.02  0.  0.
   204  2.03  0.  0.
   205  2.04  0.  0.
   206  2.05  0.  0.
   207  2.06  0.  0.
   208  2.07  0.  0.
   209  2.08  0.  0.
   210  2.09  0.  0.
   211  2.10  0.  0.
   212  2.11  0.  0.
   213  2.12  0.  0.
   214  2.13  0.  0.
   215  2.14  0.  0.
   216  2.15  0.  0.
   217  2.16  0.  0.
   218  2.17  0.  0.
   219  2.18  0.  0.
   220  2.19  0.  0.
   221  2.20  0.  0.
   222  2.21  0.  0.
   223  2.22  0.  0.
   224  2.23  0.  0.
   225  2.24  0.  0.
   226  2.25  0.  0.
   227  2.26  0.  0.
   228  2.27  0.  0.
   229  2.28  0.  0.
   230  2.29  0.  0.
   231  2.30  0.  0.
   232  2.31  0.  0.
   233  2.32  0.  0.
   234  2.33  0.  0.
   235  2.34  0.  0.
   236  2.35  0.  0.
   237  2.36  0.  0.
   238  2.37  0.  0.
   239  2.38  0.  0.
   240  2.39  0.  0.
   241  2.40  0.  0.
   242  2.41  0.  0.
   243  2.42  0.  0.
   244  2.43  0.  0.
   245  2.44  0.  0.
   246  2.45  0.  0.
   247  2.46  0.  0.
   248  2.47  0.  0.
   249  2.48  0.  0.
   250  2.49  0.  0.
   251  2.50  0.  0.
   252  2.51  0.  0.
   253  2.52  0.  0.
   254  2.53  0.  0.
   255  2.54  0.  0.
   256  2.55  0.  0.
   257  2.56  0.  0.
   258  2.57  0.  0.
   259  2.58  0.  0.
   260  2.59  0.  0.
   261  2.60  0.  0.
   262  2.61  0.  0.
   263  2.62  0.  0.
   264  2.63  0.  0.
   265  2.64  0.  0.
   266  2.65  0.  0.
   267  2.66  0.  0.
   268  2.67  0.  0.
   269  2.68  0.  0.
   270  2.69  0.  0.
   271  2.70  0.  0.
   272  2.71  0.  0.
   273  2.72  0.  0.
   274  2.73  0.  0.
   275  2.74  0.  0.
   276  2.75  0.  0.
   277  2.76  0.  0.
   278  2.77  0.  0.
   279  2.78  0.  0.
   280  2.79  0.  0.
   281  2.80  0.  0.
   282  2.81  0.  0.
   283  2.82  0.  0.
   284  2.83  0.  0.
   285  2.84  0.  0.
   286  2.85  0.  0.
   287  2.86  0.  0.
   288  2.87  0.  0.
   289  2.88  0.  0.
   290  2.89  0.  0.
   291  2.90  0.  0.
   292  2.91  0.  0.
   293  2.92  0.  0.
   294  2.93  0.  0.
   295  2.94  0.  0.
   296  2.95  0.  0.
   297  2.96  0.  0.
   298  2.97  0.  0.
   299  2.98  0.  0.
   300  2.99  0.  0.
   301  3.00  0.  0.
   302  3.01  0.  0.
   303  3.02  0.  0.
   304  3.03  0.  0.
   305  3.04  0.  0.
   306  3.05  0.  0.
   307  3.06  0.  0.
   308  3.07  0.  0.
   309  3.08  0.  0.
   310  3.09  0.  0.
   311  3.10  0.  0.
   312  3.11  0.  0.
   313  3.12  0.  0.
   314  3.13  0.  0.
   315  3.14  0.  0.
   316  3.15  0.  0.
   317  3.16  0.  0.
   318  3.17  0.  0.
   319  3.18  0.  0.
   320  3.19  0.  0.
   321  3.20  0.  0.
   322  3.21  0.  0.
   323  3.22  0.  0.
   324  3.23  0.  0.
   325  3.24  0.  0.
   326  3.25  0.  0.
   327  3.26  0.  0.
   328  3.27  0.  0.
   329  3.28  0.  0.
   330  3.29  0.  0.
   331  3.30  0.  0.
   332  3.31  0.  0.
   333  3.32  0.  0.
   334  3.33  0.  0.
   335  3.34  0.  0.
   336  3.35  0.  0.
   337  3.36  0.  0.
   338  3.37  0.  0.
   339  3.38  0.  0.
   340  3.39  0.  0.
   341  3.40  0.  0.
   342  3.41  0.  0.
   343  3.42  0.  0.
   344  3.43  0.  0.
   345  3.44  0.  0.
   346  3.45  0.  0.
   347  3.46  0.  0.
   348  3.47  0.  0.
   349  3.48  0.  0.
   350  3.49  0.  0.
   351  3.50  0.  0.
   352  3.51  0.  0.
   353  3.52  0.  0.
   354  3.53  0.  0.
   355  3.54  0.  0.
   356  3.55  0.  0.
   357  3.56  0.  0.
   358  3.57  0.  0.
   359  3.58  0.  0.
   360  3.59  0.  0.
   361  3.60  0.  0.
   362  3.61  0.  0.
   363  3.62  0.  0.
   364  3.63  0.  0.
   365  3.64  0.  0.
   366  3.65  0.  0.
   367  3.66  0.  0.
   368  3.67  0.  0.
   369  3.68  0.  0.
   370  3.69  0.  0.
   371  3.70  0.  0.
   372  3.71  0.  0.
   373  3.72  0.  0.
   374  3.73  0.  0.
   375  3.74  0.  0.
   376  3.75  0.  0.
   377  3.76  0.  0.
   378  3.77  0.  0.
   379  3.78  0.  0.
   380  3.79  0.  0.
   381  3.80  0.  0.
   382  3.81  0.  0.
   383  3.82  0.  0.
   384  3.83  0.  0.
   385  3.84  0.  0.
   386  3.85  0.  0.
   387  3.86  0.  0.
   388  3.87  0.  0.
   389  3.88  0.  0.
   390  3.89  0.  0.
   391  3.90  0.  0.
   392  3.91  0.  0.
   393  3.92  0.  0.
   394  3.93  0.  0.
   395  3.94  0.  0.
   396  3.95  0.  0.
   397  3.96  0.  0.
   398  3.97  0.  0.
   399  3.98  0.  0.
   400  3.99  0.  0.
   1                         1.0464051350357E+00 -7.9679609690393E-02
     1  0.0000000000000E+00  3.5106471896196E-10  3.2599755880880E-10
     2  1.0000000000000E-02  1.4119901343092E-03  1.9782829367947E-04
     3  2.0000000000000E-02  5.6423139375791E-03  7.9004766203263E-04
     4  3.0000000000000E-02  1.2674059332981E-02  1.7728773044845E-03
     5  4.0000000000000E-02  2.2479131744065E-02  3.1400681663952E-03
     6  5.0000000000000E-02  3.5018391762895E-02  4.8829807356491E-03
     7  6.0000000000000E-02  5.0241846573131E-02  6.9906927191976E-03
     8  7.0000000000000E-02  6.8088893829485E-02  9.4501353768452E-03
     9  8.0000000000000E-02  8.8488616343947E-02  1.2246256963567E-02
    10  9.0000000000000E-02  1.1136012559243E-01  1.5362211421949E-02
    11  1.0000000000000E-01  1.3661295173634E-01  1.8779570177188E-02
    12  1.1000000000000E-01  1.6414747755455E-01  2.2478554621619E-02
    13  1.2000000000000E-01  1.9385541340534E-01  2.6438286635746E-02
    14  1.3000000000000E-01  2.2562031008643E-01  3.0637054283058E-02
    15  1.4000000000000E-01  2.5931810623784E-01  3.5052589636103E-02
    16  1.5000000000000E-01  2.9481770673731E-01  3.9662355545925E-02
    17  1.6000000000000E-01  3.3198158837339E-01  4.4443838055547E-02
    18  1.7000000000000E-01  3.7066642894925E-01  4.9374841083878E-02
    19  1.8000000000000E-01  4.1072375586979E-01  5.4433779968176E-02
    20  1.9000000000000E-01  4.5200061019796E-01  5.9599970453297E-02
    21  2.0000000000000E-01  4.9434022213279E-01  6.4853909752597E-02
    22  2.1000000000000E-01  5.3758269386149E-01  7.0177546380683E-02
    23  2.2000000000000E-01  5.8156568577085E-01  7.5554535568178E-02
    24  2.3000000000000E-01  6.2612510206806E-01  8.0970477215472E-02
    25  2.4000000000000E-01  6.7109577195729E-01  8.6413133522160E-02
    26  2.5000000000000E-01  7.1631212264429E-01  9.1872623640839E-02
    27  2.6000000000000E-01  7.6160884059510E-01  9.7341592945533E-02
    28  2.7000000000000E-01  8.0682151765553E-01  1.0281535477362E-01
    29  2.8000000000000E-01  8.5178727884237E-01  1.0829200279285E-01
    30  2.9000000000000E-01  8.9634538884315E-01  1.1377249245978E-01
    31  3.0000000000000E-01  9.4033783450716E-01  1.1926069036662E-01
    32  3.1000000000000E-01  9.8360988087154E-01  1.2476339062066E-01
    33  3.2000000000000E-01  1.0260105985422E+00  1.3029029775604E-01
    34  3.3000000000000E-01  1.0673933605346E+00  1.3585397604147E-01
    35  3.4000000000000E-01  1.1076163069743E+00  1.4146976541266E-01
    36  3.5000000000000E-01  1.1465427763525E+00  1.4715566462365E-01
    37  3.6000000000000E-01  1.1840417023357E+00  1.5293218257012E-01
    38  3.7000000000000E-01  1.2199879754207E+00  1.5882215908849E-01
    39  3.8000000000000E-01  1.2542627690249E+00  1.6485055687195E-01
    40  3.9000000000000E-01  1.2867538298822E+00  1.7104422646553E-01
    41  4.0000000000000E-01  1.3173557328952E+00  1.7743164660335E-01
    42  4.1000000000000E-01  1.3459701008504E+00  1.8404264242805E-01
    43  4.2000000000000E-01  1.3725057896555E+00  1.9090808438398E-01
    44  4.3000000000000E-01  1.3968790399830E+00  1.9805957079686E-01
    45  4.4000000000000E-01  1.4190135964140E+00  2.0552909734272E-01
    46  4.5000000000000E-01  1.4388407953650E+00  2.1334871676512E-01
    47  4.6000000000000E-01  1.4562996232433E+00  2.2155019231951E-01
    48  4.7000000000000E-01  1.4713367464170E+00  2.3016464850721E-01
    49  4.8000000000000E-01  1.4839065147015E+00  2.3922222270668E-01
    50  4.9000000000000E-01  1.4939709401525E+00  2.4875172131584E-01
    51  5.0000000000000E-01  1.5014996530189E+00  2.5878028398709E-01
    52  5.1000000000000E-01  1.5064698367446E+00  2.6933305946557E-01
    53  5.2000000000000E-01  1.5088661439224E+00  2.8043289643213E-01
    54  5.3000000000000E-01  1.5086805950849E+00  2.9210005260641E-01
    55  5.4000000000000E-01  1.5059124621812E+00  3.0435192518429E-01
    56  5.5000000000000E-01  1.5005681385271E+00  3.1720280546877E-01
    57  5.6000000000000E-01  1.4926609969316E+00  3.3066366030685E-01
    58  5.7000000000000E-01  1.4822112376007E+00  3.4474194267033E-01
    59  5.8000000000000E-01  1.4692457272983E+00  3.5944143341675E-01
    60  5.9000000000000E-01  1.4537978311081E+00  3.7476211594335E-01
    61  6.0000000000000E-01  1.4359072379879E+00  3.9070008510386E-01
    62  6.1000000000000E-01  1.4156197811511E+00  4.0724749139895E-01
    63  6.2000000000000E-01  1.3929872541364E+00  4.2439252108115E-01
    64  6.3000000000000E-01  1.3680672232555E+00  4.4211941243655E-01
    65  6.4000000000000E-01  1.3409228369293E+00  4.6040850812359E-01
    66  6.5000000000000E-01  1.3116226322463E+00  4.7923634306817E-01
    67  6.6000000000000E-01  1.2802403389021E+00  4.9857576703666E-01
    68  6.7000000000000E-01  1.2468546805103E+00  5.1839610064095E-01
    69  6.8000000000000E-01  1.2115491731125E+00  5.3866332317339E-01
    70  6.9000000000000E-01  1.1744119205683E+00  5.5934029033105E-01
    71  7.0000000000000E-01  1.1355354063655E+00  5.8038697956999E-01
    72  7.1000000000000E-01  1.0950162812714E+00  6.0176076053556E-01
    73  7.2000000000000E-01  1.0529551461422E+00  6.2341668774748E-01
    74  7.3000000000000E-01  1.0094563291216E+00  6.4530781248082E-01
    75  7.4000000000000E-01  9.6462765639623E-01  6.6738551058021E-01
    76  7.5000000000000E-01  9.1858021563304E-01  6.8959982277467E-01
    77  7.6000000000000E-01  8.7142811120736E-01  7.1189980392965E-01
    78  7.7000000000000E-01  8.2328821033168E-01  7.3423387757817E-01
    79  7.8000000000000E-01  7.7427987922766E-01  7.5655019202136E-01
    80  7.9000000000000E-01  7.2452470853536E-01  7.7879697427466E-01
    81  8.0000000000000E-01  6.7414622723221E-01  8.0092287816503E-01
    82  8.1000000000000E-01  6.2326960443415E-01  8.2287732295354E-01
    83  8.2000000000000E-01  5.7202133857517E-01  8.4461081896629E-01
    84  8.3000000000000E-01  5.2052893360530E-01  8.6607527686584E-01
    85  8.4000000000000E-01  4.6892056201159E-01  8.8722429738025E-01
    86  8.5000000000000E-01  4.1732471464818E-01  9.0801343852929E-01
    87  8.6000000000000E-01  3.6586983755877E-01  9.2840045764160E-01
    88  8.7000000000000E-01  3.1468395618631E-01  9.4834552574298E-01
    89  8.8000000000000E-01  2.6389428758570E-01  9.6781141220885E-01
    90  8.9000000000000E-01  2.1362684148523E-01  9.8676363791212E-01
    91  9.0000000000000E-01  1.6400601127701E-01  1.0051705954558E+00
    92  9.1000000000000E-01  1.1515415625340E-01  1.0230036354554E+00
    93  9.2000000000000E-01  6.7191176641724E-02  1.0402371182240E+00
    94  9.3000000000000E-01  2.0234083220745E-02  1.0568484306093E+00
    95  9.4000000000000E-01 -2.5603436474432E-02  1.0728179681338E+00
    96  9.5000000000000E-01 -7.0211453139523E-02  1.0881290829878E+00
    97  9.6000000000000E-01 -1.1348422946303E-01  1.1027679988236E+00
    98  9.7000000000000E-01 -1.5532065006375E-01  1.1167236936834E+00
    99  9.8000000000000E-01 -1.9562464484419E-01  1.1299877527683E+00
   100  9.9000000000000E-01 -2.3430560286161E-01  1.1425541931107E+00
   101  1.0000000000000E+00 -2.7127877370601E-01  1.1544192625477E+00
   102  1.0100000000000E+00 -3.0646565328935E-01  1.1655812156999E+00
   103  1.0200000000000E+00 -3.3979435089582E-01  1.1760400699405E+00
   104  1.0300000000000E+00 -3.7119993431914E-01  1.1857973445862E+00
   105  1.0400000000000E+00 -4.0062474992375E-01  1.1948557867543E+00
   106  1.0500000000000E+00 -4.2801871451015E-01  1.2032190875024E+00
   107  1.0600000000000E+00 -4.5333957594482E-01  1.2108915920026E+00
   108  1.0700000000000E+00 -4.7655313962894E-01  1.2178780075940E+00
   109  1.0800000000000E+00 -4.9763345803108E-01  1.2241831136069E+00
   110  1.0900000000000E+00 -5.1656298069319E-01  1.2298114768562E+00
   111  1.1000000000000E+00 -5.3333266233863E-01  1.2347671766637E+00
   112  1.1100000000000E+00 -5.4794202696287E-01  1.2390535431876E+00
   113  1.1200000000000E+00 -5.6039918607013E-01  1.2426729127073E+00
   114  1.1300000000000E+00 -5.7072080953169E-01  1.2456264033487E+00
   115  1.1400000000000E+00 -5.7893204788055E-01  1.2479137145200E+00
   116  1.1500000000000E+00 -5.8506640521987E-01  1.2495329530859E+00
   117  1.1600000000000E+00 -5.8916556230666E-01  1.2504804890193E+00
   118  1.1700000000000E+00 -5.9127914977361E-01  1.2507508429550E+00
   119  1.1800000000000E+00 -5.9146447186721E-01  1.2503366077219E+00
   120  1.1900000000000E+00 -5.8978618150634E-01  1.2492284055559E+00
   121  1.2000000000000E+00 -5.8631590789552E-01  1.2474148822992E+00
   122  1.2100000000000E+00 -5.8113183836218E-01  1.2448827394781E+00
   123  1.2200000000000E+00 -5.7431825651574E-01  1.2416168047225E+00
   124  1.2300000000000E+00 -5.6596503925115E-01  1.2376001405518E+00
   125  1.2400000000000E+00 -5.5616711553144E-01  1.2328141911108E+00
   126  1.2500000000000E+00 -5.4502389027883E-01  1.2272389659978E+00
   127  1.2600000000000E+00 -5.3263863708148E-01  1.2208532598887E+00
   128  1.2700000000000E+00 -5.1911786377320E-01  1.2136349062362E+00
   129  1.2800000000000E+00 -5.0457065526644E-01  1.2055610629124E+00
   130  1.2900000000000E+00 -4.8910799830994E-01  1.1966085272671E+00
   131  1.3000000000000E+00 -4.7284209309645E-01  1.1867540777103E+00
   132  1.3100000000000E+00 -4.5588565686071E-01  1.1759748385859E+00
   133  1.3200000000000E+00 -4.3835122478186E-01  1.1642486647933E+00
   134  1.3300000000000E+00 -4.2035045363102E-01  1.1515545423457E+00
   135  1.3400000000000E+00 -4.0199343368683E-01  1.1378730008177E+00
   136  1.3500000000000E+00 -3.8338801447299E-01  1.1231865334436E+00
   137  1.3600000000000E+00 -3.6463914985390E-01  1.1074800204838E+00
   138  1.3700000000000E+00 -3.4584826795527E-01  1.0907411513714E+00
   139  1.3800000000000E+00 -3.2711267125596E-01  1.0729608411033E+00
   140  1.3900000000000E+00 -3.0852497202576E-01  1.0541336363317E+00
   141  1.4000000000000E+00 -2.9017256806112E-01  1.0342581066601E+00
   142  1.4100000000000E+00 -2.7213716339945E-01  1.0133372167407E+00
   143  1.4200000000000E+00 -2.5449433837309E-01  9.9137867491323E-01
   144  1.4300000000000E+00 -2.3731317300037E-01  9.6839525431615E-01
   145  1.4400000000000E+00 -2.2065592730181E-01  9.4440508263643E-01
   146  1.4500000000000E+00 -2.0457778168374E-01  9.1943189694483E-01
   147  1.4600000000000E+00 -1.8912664004783E-01  8.9350526038385E-01
   148  1.4700000000000E+00 -1.7434299776928E-01  8.6666073783483E-01
   149  1.4800000000000E+00 -1.6025987614342E-01  8.3894002808346E-01
   150  1.4900000000000E+00 -1.4690282433445E-01  8.1039105042685E-01
   151  1.5000000000000E+00 -1.3428998927407E-01  7.8106798411619E-01
   152  1.5100000000000E+00 -1.2243225336108E-01  7.5103125949977E-01
   153  1.5200000000000E+00 -1.1133343920752E-01  7.2034750022084E-01
   154  1.5300000000000E+00 -1.0099058006910E-01  6.8908941632472E-01
   155  1.5400000000000E+00 -9.1394253994072E-02  6.5733564863752E-01
   156  1.5500000000000E+00 -8.2528979129602E-02  6.2517056528687E-01
   157  1.5600000000000E+00 -7.4373667044384E-02  5.9268401174072E-01
   158  1.5700000000000E+00 -6.6902130367402E-02  5.5997101623464E-01
   159  1.5800000000000E+00 -6.0083640507560E-02  5.2713145293972E-01
   160  1.5900000000000E+00 -5.3883530716230E-02  4.9426966568452E-01
   161  1.6000000000000E+00 -4.8263839287683E-02  4.6149405548030E-01
   162  1.6100000000000E+00 -4.3183987265537E-02  4.2891663550647E-01
   163  1.6200000000000E+00 -3.8601484641786E-02  3.9665255758642E-01
   164  1.6300000000000E+00 -3.4472658702231E-02  3.6481961451875E-01
   165  1.6400000000000E+00 -3.0753397891735E-02  3.3353772292304E-01
   166  1.6500000000000E+00 -2.7399904347919E-02  3.0292839150732E-01