K     ONCVPSP-4.0.1  r_core=   2.20490   2.67009   2.67009
     19.0000      9.0000      230118    zatom,zion,pspd
     8       2   2     4   400     0    pspcod,pspxc,lmax,lloc,mmax,r2well
  3.99000000  5.00000000  0.00000000    rchrg fchrg qchrg
     2     2     2     0     0    nproj
     1     1           extension_switch
   0                        -4.5187434107346E+00  9.4471822428170E-01
     1  0.0000000000000E+00  1.2246548219963E-10 -8.1260415063511E-11
     2  1.0000000000000E-02  4.0681641471044E-02  2.2047240836937E-02
     3  2.0000000000000E-02  8.1329586422124E-02  4.4068201846466E-02
     4  3.0000000000000E-02  1.2190988626006E-01  6.6036827045354E-02
     5  4.0000000000000E-02  1.6238809151691E-01  8.7927505910616E-02
     6  5.0000000000000E-02  2.0272900956047E-01  1.0971529056017E-01
     7  6.0000000000000E-02  2.4289647199486E-01  1.3137610633214E-01
     8  7.0000000000000E-02  2.8285311483629E-01  1.5288695365843E-01
     9  8.0000000000000E-02  3.2256017442684E-01  1.7422609920944E-01
    10  9.0000000000000E-02  3.6197730189792E-01  1.9537325438716E-01
    11  1.0000000000000E-01  4.0106239881691E-01  2.1630973936177E-01
    12  1.1000000000000E-01  4.3977147644682E-01  2.3701863098244E-01
    13  1.2000000000000E-01  4.7805854082131E-01  2.5748489304368E-01
    14  1.3000000000000E-01  5.1587550558803E-01  2.7769548755422E-01
    15  1.4000000000000E-01  5.5317213430502E-01  2.9763946583332E-01
    16  1.5000000000000E-01  5.8989601358883E-01  3.1730803844924E-01
    17  1.6000000000000E-01  6.2599255821342E-01  3.3669462321360E-01
    18  1.7000000000000E-01  6.6140504894681E-01  3.5579487065221E-01
    19  1.8000000000000E-01  6.9607470359206E-01  3.7460666658583E-01
    20  1.9000000000000E-01  7.2994078137232E-01  3.9313011167114E-01
    21  2.0000000000000E-01  7.6294072047036E-01  4.1136747797085E-01
    22  2.1000000000000E-01  7.9501030820330E-01  4.2932314284080E-01
    23  2.2000000000000E-01  8.2608388298652E-01  4.4700350063871E-01
    24  2.3000000000000E-01  8.5609456692060E-01  4.6441685297200E-01
    25  2.4000000000000E-01  8.8497452752299E-01  4.8157327840925E-01
    26  2.5000000000000E-01  9.1265526682703E-01  4.9848448277872E-01
    27  2.6000000000000E-01  9.3906793578512E-01  5.1516363136711E-01
    28  2.7000000000000E-01  9.6414367164552E-01  5.3162516450963E-01
    29  2.8000000000000E-01  9.8781395572380E-01  5.4788459822751E-01
    30  2.9000000000000E-01  1.0100109887640E+00  5.6395831171955E-01
    31  3.0000000000000E-01  1.0306680808829E+00  5.7986332364854E-01
    32  3.1000000000000E-01  1.0497200529155E+00  5.9561705928061E-01
    33  3.2000000000000E-01  1.0671036458313E+00  6.1123711063400E-01
    34  3.3000000000000E-01  1.0827579347731E+00  6.2674099187328E-01
    35  3.4000000000000E-01  1.0966247441830E+00  6.4214589224370E-01
    36  3.5000000000000E-01  1.1086490604234E+00  6.5746842887903E-01
    37  3.6000000000000E-01  1.1187794382746E+00  6.7272440183274E-01
    38  3.7000000000000E-01  1.1269683977051E+00  6.8792855367838E-01
    39  3.8000000000000E-01  1.1331728073431E+00  7.0309433599873E-01
    40  3.9000000000000E-01  1.1373542511600E+00  7.1823368503574E-01
    41  4.0000000000000E-01  1.1394793749751E+00  7.3335680870522E-01
    42  4.1000000000000E-01  1.1395202095321E+00  7.4847198709089E-01
    43  4.2000000000000E-01  1.1374544670612E+00  7.6358538842370E-01
    44  4.3000000000000E-01  1.1332658084391E+00  7.7870090242457E-01
    45  4.4000000000000E-01  1.1269440782787E+00  7.9381999274321E-01
    46  4.5000000000000E-01  1.1184855055306E+00  8.0894157006312E-01
    47  4.6000000000000E-01  1.1078928674488E+00  8.2406188726584E-01
    48  4.7000000000000E-01  1.0951756150633E+00  8.3917445785588E-01
    49  4.8000000000000E-01  1.0803499586168E+00  8.5426999864481E-01
    50  4.9000000000000E-01  1.0634389117442E+00  8.6933639747920E-01
    51  5.0000000000000E-01  1.0444722935153E+00  8.8435870657539E-01
    52  5.1000000000000E-01  1.0234866878113E+00  8.9931916179558E-01
    53  5.2000000000000E-01  1.0005253598582E+00  9.1419722796652E-01
    54  5.3000000000000E-01  9.7563813010417E-01  9.2896967010778E-01
    55  5.4000000000000E-01  9.4888120598427E-01  9.4361065020021E-01
    56  5.5000000000000E-01  9.2031697247813E-01  9.5809184889235E-01
    57  5.6000000000000E-01  8.9001374271449E-01  9.7238261131263E-01
    58  5.7000000000000E-01  8.5804547022201E-01  9.8645011593220E-01
    59  5.8000000000000E-01  8.2449142475598E-01  1.0002595652074E+00
    60  5.9000000000000E-01  7.8943583394691E-01  1.0137743965261E+00
    61  6.0000000000000E-01  7.5296749331488E-01  1.0269565117895E+00
    62  6.1000000000000E-01  7.1517934747128E-01  1.0397665237801E+00
    63  6.2000000000000E-01  6.7616804558372E-01  1.0521640173054E+00
    64  6.3000000000000E-01  6.3603347440820E-01  1.0641078229570E+00
    65  6.4000000000000E-01  5.9487827239387E-01  1.0755563012007E+00
    66  6.5000000000000E-01  5.5280732853642E-01  1.0864676344009E+00
    67  6.6000000000000E-01  5.0992726979580E-01  1.0968001242989E+00
    68  6.7000000000000E-01  4.6634594100109E-01  1.1065124923952E+00
    69  6.8000000000000E-01  4.2217188123796E-01  1.1155641806478E+00
    70  6.9000000000000E-01  3.7751380075224E-01  1.1239156498740E+00
    71  7.0000000000000E-01  3.3248006240637E-01  1.1315286732494E+00
    72  7.1000000000000E-01  2.8717817169248E-01  1.1383666223235E+00
    73  7.2000000000000E-01  2.4171427923794E-01  1.1443947430234E+00
    74  7.3000000000000E-01  1.9619269963640E-01  1.1495804191881E+00
    75  7.4000000000000E-01  1.5071545029984E-01  1.1538934212740E+00
    76  7.5000000000000E-01  1.0538181385715E-01  1.1573061379898E+00
    77  7.6000000000000E-01  6.0287927422053E-02  1.1597937887577E+00
    78  7.7000000000000E-01  1.5526401821255E-02  1.1613346150571E+00
    79  7.8000000000000E-01 -2.8814026387423E-02  1.1619100488835E+00
    80  7.9000000000000E-01 -7.2648807563561E-02  1.1615048567516E+00
    81  8.0000000000000E-01 -1.1589785406672E-01  1.1601072578790E+00
    82  8.1000000000000E-01 -1.5848577587188E-01  1.1577090154144E+00
    83  8.2000000000000E-01 -2.0034207516599E-01  1.1543054998042E+00
    84  8.3000000000000E-01 -2.4140129873878E-01  1.1498957236429E+00
    85  8.4000000000000E-01 -2.8160314735784E-01  1.1444823475997E+00
    86  8.5000000000000E-01 -3.2089254170252E-01  1.1380716572751E+00
    87  8.6000000000000E-01 -3.5921964482273E-01  1.1306735111022E+00
    88  8.7000000000000E-01 -3.9653984147979E-01  1.1223012596678E+00
    89  8.8000000000000E-01 -4.3281367511752E-01  1.1129716370892E+00
    90  8.9000000000000E-01 -4.6800674359672E-01  1.1027046253405E+00
    91  9.0000000000000E-01 -5.0208955520158E-01  1.0915232926698E+00
    92  9.1000000000000E-01 -5.3503734679162E-01  1.0794536074913E+00
    93  9.2000000000000E-01 -5.6682986631965E-01  1.0665242293670E+00
    94  9.3000000000000E-01 -5.9745112226653E-01  1.0527662789098E+00
    95  9.4000000000000E-01 -6.2688910285024E-01  1.0382130886421E+00
    96  9.5000000000000E-01 -6.5513546814893E-01  1.0228999370299E+00
    97  9.6000000000000E-01 -6.8218521853341E-01  1.0068637680788E+00
    98  9.7000000000000E-01 -7.0803634302756E-01  9.9014289902480E-01
    99  9.8000000000000E-01 -7.3268945140890E-01  9.7277671877619E-01
   100  9.9000000000000E-01 -7.5614739401869E-01  9.5480537986532E-01
   101  1.0000000000000E+00 -7.7841487337302E-01  9.3626948674415E-01
   102  1.0100000000000E+00 -7.9949805175134E-01  9.1720978331042E-01
   103  1.0200000000000E+00 -8.1940415898503E-01  8.9766684257593E-01
   104  1.0300000000000E+00 -8.3814110467564E-01  8.7768076138831E-01
   105  1.0400000000000E+00 -8.5571709904111E-01  8.5729086309028E-01
   106  1.0500000000000E+00 -8.7214028651576E-01  8.3653541094675E-01
   107  1.0600000000000E+00 -8.8741839612052E-01  8.1545133509016E-01
   108  1.0700000000000E+00 -9.0155841246991E-01  7.9407397562883E-01
   109  1.0800000000000E+00 -9.1456627109765E-01  7.7243684443254E-01
   110  1.0900000000000E+00 -9.2644658155932E-01  7.5057140795442E-01
   111  1.1000000000000E+00 -9.3720238151623E-01  7.2850689327140E-01
   112  1.1100000000000E+00 -9.4683492471523E-01  7.0627011932551E-01
   113  1.1200000000000E+00 -9.5534350546262E-01  6.8388535513012E-01
   114  1.1300000000000E+00 -9.6272532184496E-01  6.6137420646797E-01
   115  1.1400000000000E+00 -9.6897537958118E-01  6.3875553235458E-01
   116  1.1500000000000E+00 -9.7408643800040E-01  6.1604539227370E-01
   117  1.1600000000000E+00 -9.7804899923264E-01  5.9325702491273E-01
   118  1.1700000000000E+00 -9.8085134127793E-01  5.7040085883759E-01
   119  1.1800000000000E+00 -9.8247959518808E-01  5.4748455525189E-01
   120  1.1900000000000E+00 -9.8291786615613E-01  5.2451308268568E-01
   121  1.2000000000000E+00 -9.8214839786884E-01  5.0148882315864E-01
   122  1.2100000000000E+00 -9.8015177903645E-01  4.7841170906205E-01
   123  1.2200000000000E+00 -9.7690719058138E-01  4.5527938970873E-01
   124  1.2300000000000E+00 -9.7239269154137E-01  4.3208742620978E-01
   125  1.2400000000000E+00 -9.6658554133126E-01  4.0882951305624E-01
   126  1.2500000000000E+00 -9.5946255561391E-01  3.8549772451582E-01
   127  1.2600000000000E+00 -9.5100049265575E-01  3.6208278369874E-01
   128  1.2700000000000E+00 -9.4117646669396E-01  3.3857435190903E-01
   129  1.2800000000000E+00 -9.2996838452105E-01  3.1496133567860E-01
   130  1.2900000000000E+00 -9.1735540120121E-01  2.9123220868180E-01
   131  1.3000000000000E+00 -9.0331839057670E-01  2.6737534555335E-01
   132  1.3100000000000E+00 -8.8784042600254E-01  2.4337936448126E-01
   133  1.3200000000000E+00 -8.7090726656577E-01  2.1923347532160E-01
   134  1.3300000000000E+00 -8.5250784390593E-01  1.9492782988478E-01
   135  1.3400000000000E+00 -8.3263474465475E-01  1.7045387097470E-01
   136  1.3500000000000E+00 -8.1128468345948E-01  1.4580467672309E-01
   137  1.3600000000000E+00 -7.8845896154484E-01  1.2097529675300E-01
   138  1.3700000000000E+00 -7.6416390580462E-01  9.5963076727061E-02
   139  1.3800000000000E+00 -7.3841128349517E-01  7.0767967888966E-02
   140  1.3900000000000E+00 -7.1121868773018E-01  4.5392818289607E-02
   141  1.4000000000000E+00 -6.8260988914704E-01  1.9843642502815E-02
   142  1.4100000000000E+00 -6.5261514933006E-01 -5.8701332220258E-03
   143  1.4200000000000E+00 -6.2127149183244E-01 -3.1735453252060E-02
   144  1.4300000000000E+00 -5.8862292693549E-01 -5.7735444991511E-02
   145  1.4400000000000E+00 -5.5472062661976E-01 -8.3849263889845E-02
   146  1.4500000000000E+00 -5.1962304659207E-01 -1.1005197324955E-01
   147  1.4600000000000E+00 -4.8339599261598E-01 -1.3631446077532E-01
   148  1.4700000000000E+00 -4.4611262882610E-01 -1.6260339351637E-01
   149  1.4800000000000E+00 -4.0785342616397E-01 -1.8888121254673E-01
   150  1.4900000000000E+00 -3.6870604955455E-01 -2.1510616840555E-01
   151  1.5000000000000E+00 -3.2876518294115E-01 -2.4123239798417E-01
   152  1.5100000000000E+00 -2.8813229180895E-01 -2.6721004320292E-01
   153  1.5200000000000E+00 -2.4691532334996E-01 -2.9298541146857E-01
   154  1.5300000000000E+00 -2.0522834495020E-01 -3.1850117754881E-01
   155  1.5400000000000E+00 -1.6319112220798E-01 -3.4369662614410E-01
   156  1.5500000000000E+00 -1.2092863821757E-01 -3.6850793408368E-01
   157  1.5600000000000E+00 -7.8570556369197E-02 -3.9286849072415E-01
   158  1.5700000000000E+00 -3.6250629417783E-02 -4.1670925479061E-01
   159  1.5800000000000E+00  5.8939419374734E-03 -4.3995914556996E-01
   160  1.5900000000000E+00  4.7723197259094E-02 -4.6254546605380E-01
   161  1.6000000000000E+00  8.9095147218918E-02 -4.8439435533063E-01
   162  1.6100000000000E+00  1.2986654253538E-01 -5.0543126725033E-01
   163  1.6200000000000E+00  1.6989367607285E-01 -5.2558147212912E-01
   164  1.6300000000000E+00  2.0903321283772E-01 -5.4477057803328E-01
   165  1.6400000000000E+00  2.4714304230816E-01 -5.6292506797693E-01
   166  1.6500000000000E+00  2.8408314728029E-01 -5.7997284919481E-01
   167  1.6600000000000E+00  3.1971648320455E-01 -5.9584381050733E-01
   168  1.6700000000000E+00  3.5390986182617E-01 -6.1047038368356E-01
   169  1.6800000000000E+00  3.8653483283208E-01 -6.2378810462927E-01
   170  1.6900000000000E+00  4.1746855714762E-01 -6.3573617018274E-01
   171  1.7000000000000E+00  4.4659466551846E-01 -6.4625798629178E-01
   172  1.7100000000000E+00  4.7380409605820E-01 -6.5530170337047E-01
   173  1.7200000000000E+00  4.9899590453980E-01 -6.6282073469545E-01
   174  1.7300000000000E+00  5.2207804135882E-01 -6.6877425379681E-01
   175  1.7400000000000E+00  5.4296808929755E-01 -6.7312766692886E-01
   176  1.7500000000000E+00  5.6159395647069E-01 -6.7585305686957E-01
   177  1.7600000000000E+00  5.7789451913283E-01 -6.7692959449365E-01
   178  1.7700000000000E+00  5.9182020937388E-01 -6.7634391479077E-01
   179  1.7800000000000E+00  6.0333354311849E-01 -6.7409045425706E-01
   180  1.7900000000000E+00  6.1240958427589E-01 -6.7017174687157E-01
   181  1.8000000000000E+00  6.1903634135457E-01 -6.6459867617789E-01
   182  1.8100000000000E+00  6.2321509335805E-01 -6.5739068132300E-01
   183  1.8200000000000E+00  6.2496064230915E-01 -6.4857591525630E-01
   184  1.8300000000000E+00  6.2430149031126E-01 -6.3819135366345E-01
   185  1.8400000000000E+00  6.2127993962568E-01 -6.2628285358735E-01
   186  1.8500000000000E+00  6.1595211484949E-01 -6.1290516108982E-01
   187  1.8600000000000E+00  6.0838790750952E-01 -5.9812186818573E-01
   188  1.8700000000000E+00  5.9867084288116E-01 -5.8200531881615E-01
   189  1.8800000000000E+00  5.8689784063085E-01 -5.6463644225059E-01
   190  1.8900000000000E+00  5.7317904906657E-01 -5.4610465021671E-01
   191  1.9000000000000E+00  5.5763679685215E-01 -5.2650707027367E-01
   192  1.9100000000000E+00  5.4040314588948E-01 -5.0594673088845E-01
   193  1.9200000000000E+00  5.2161778375369E-01 -4.8453103012964E-01
   194  1.9300000000000E+00  5.0142737923187E-01 -4.6237133129842E-01
   195  1.9400000000000E+00  4.7998480442955E-01 -4.3958246223903E-01
   196  1.9500000000000E+00  4.5744833104279E-01 -4.1628220023867E-01
   197  1.9600000000000E+00  4.3398077270417E-01 -3.9259072038404E-01
   198  1.9700000000000E+00  4.0974858608398E-01 -3.6863001645660E-01
   199  1.9800000000000E+00  3.8492093503573E-01 -3.4452329698758E-01
   200  1.9900000000000E+00  3.5966872445650E-01 -3.2039436088536E-01
   201  2.0000000000000E+00  3.3416361055142E-01 -2.9636695703718E-01
   202  2.0100000000000E+00  3.0857699440872E-01 -2.7256413243423E-01
   203  2.0200000000000E+00  2.8307900597825E-01 -2.4910757349596E-01
   204  2.0300000000000E+00  2.5783748565543E-01 -2.2611694534476E-01
   205  2.0400000000000E+00  2.3301697074054E-01 -2.0370923382996E-01
   206  2.0500000000000E+00  2.0877769405234E-01 -1.8199809510909E-01
   207  2.0600000000000E+00  1.8527460654397E-01 -1.6109322042693E-01
   208  2.0700000000000E+00  1.6265638319693E-01 -1.4109969127564E-01
   209  2.0800000000000E+00  1.4106461712918E-01 -1.2211745083182E-01
   210  2.0900000000000E+00  1.2063278685879E-01 -1.0424064116340E-01
   211  2.1000000000000E+00  1.0148413253242E-01 -8.7556255642528E-02
   212  2.1100000000000E+00  8.3728812050632E-02 -7.2142325667920E-02
   213  2.1200000000000E+00  6.7471906641974E-02 -5.8072869056551E-02
   214  2.1300000000000E+00  5.2809398166551E-02 -4.5415417071146E-02
   215  2.1400000000000E+00  3.9824808423902E-02 -3.4228928349316E-02
   216  2.1500000000000E+00  2.8589388354761E-02 -2.4563878126554E-02
   217  2.1600000000000E+00  1.9161555954905E-02 -1.6461895082665E-02
   218  2.1700000000000E+00  1.1589622778525E-02 -9.9581873129919E-03
   219  2.1800000000000E+00  5.8900338922673E-03 -5.0628322935160E-03
   220  2.1900000000000E+00  2.0968250393072E-03 -1.8034582230679E-03
   221  2.2000000000000E+00  3.0727846123400E-04 -2.6453088637493E-04
   222  2.2100000000000E+00 -8.0800585014328E-05  6.9583396162254E-05
   223  2.2200000000000E+00  1.2774904770217E-05 -1.0995321889460E-05
   224  2.23  0. -0.
   225  2.24 -0.  0.
   226  2.25  0. -0.
   227  2.26  0.  0.
   228  2.27  0.  0.
   229  2.28  0.  0.
   230  2.29  0.  0.
   231  2.30  0.  0.
   232  2.31  0.  0.
   233  2.32  0.  0.
   234  2.33  0.  0.
   235  2.34  0.  0.
   236  2.35  0.  0.
   237  2.36  0.  0.
   238  2.37  0.  0.
   239  2.38  0.  0.
   240  2.39  0.  0.
   241  2.40  0.  0.
   242  2.41  0.  0.
   243  2.42  0.  0.
   244  2.43  0.  0.
   245  2.44  0.  0.
   246  2.45  0.  0.
   247  2.46  0.  0.
   248  2.47  0.  0.
   249  2.48  0.  0.
   250  2.49  0.  0.
   251  2.50  0.  0.
   252  2.51  0.  0.
   253  2.52  0.  0.
   254  2.53  0.  0.
   255  2.54  0.  0.
   256  2.55  0.  0.
   257  2.56  0.  0.
   258  2.57  0.  0.
   259  2.58  0.  0.
   260  2.59  0.  0.
   261  2.60  0.  0.
   262  2.61  0.  0.
   263  2.62  0.  0.
   264  2.63  0.  0.
   265  2.64  0.  0.
   266  2.65  0.  0.
   267  2.66  0.  0.
   268  2.67  0.  0.
   269  2.68  0.  0.
   270  2.69  0.  0.
   271  2.70  0.  0.
   272  2.71  0.  0.
   273  2.72  0.  0.
   274  2.73  0.  0.
   275  2.74  0.  0.
   276  2.75  0.  0.
   277  2.76  0.  0.
   278  2.77  0.  0.
   279  2.78  0.  0.
   280  2.79  0.  0.
   281  2.80  0.  0.
   282  2.81  0.  0.
   283  2.82  0.  0.
   284  2.83  0.  0.
   285  2.84  0.  0.
   286  2.85  0.  0.
   287  2.86  0.  0.
   288  2.87  0.  0.
   289  2.88  0.  0.
   290  2.89  0.  0.
   291  2.90  0.  0.
   292  2.91  0.  0.
   293  2.92  0.  0.
   294  2.93  0.  0.
   295  2.94  0.  0.
   296  2.95  0.  0.
   297  2.96  0.  0.
   298  2.97  0.  0.
   299  2.98  0.  0.
   300  2.99  0.  0.
   301  3.00  0.  0.
   302  3.01  0.  0.
   303  3.02  0.  0.
   304  3.03  0.  0.
   305  3.04  0.  0.
   306  3.05  0.  0.
   307  3.06  0.  0.
   308  3.07  0.  0.
   309  3.08  0.  0.
   310  3.09  0.  0.
   311  3.10  0.  0.
   312  3.11  0.  0.
   313  3.12  0.  0.
   314  3.13  0.  0.
   315  3.14  0.  0.
   316  3.15  0.  0.
   317  3.16  0.  0.
   318  3.17  0.  0.
   319  3.18  0.  0.
   320  3.19  0.  0.
   321  3.20  0.  0.
   322  3.21  0.  0.
   323  3.22  0.  0.
   324  3.23  0.  0.
   325  3.24  0.  0.
   326  3.25  0.  0.
   327  3.26  0.  0.
   328  3.27  0.  0.
   329  3.28  0.  0.
   330  3.29  0.  0.
   331  3.30  0.  0.
   332  3.31  0.  0.
   333  3.32  0.  0.
   334  3.33  0.  0.
   335  3.34  0.  0.
   336  3.35  0.  0.
   337  3.36  0.  0.
   338  3.37  0.  0.
   339  3.38  0.  0.
   340  3.39  0.  0.
   341  3.40  0.  0.
   342  3.41  0.  0.
   343  3.42  0.  0.
   344  3.43  0.  0.
   345  3.44  0.  0.
   346  3.45  0.  0.
   347  3.46  0.  0.
   348  3.47  0.  0.
   349  3.48  0.  0.
   350  3.49  0.  0.
   351  3.50  0.  0.
   352  3.51  0.  0.
   353  3.52  0.  0.
   354  3.53  0.  0.
   355  3.54  0.  0.
   356  3.55  0.  0.
   357  3.56  0.  0.
   358  3.57  0.  0.
   359  3.58  0.  0.
   360  3.59  0.  0.
   361  3.60  0.  0.
   362  3.61  0.  0.
   363  3.62  0.  0.
   364  3.63  0.  0.
   365  3.64  0.  0.
   366  3.65  0.  0.
   367  3.66  0.  0.
   368  3.67  0.  0.
   369  3.68  0.  0.
   370  3.69  0.  0.
   371  3.70  0.  0.
   372  3.71  0.  0.
   373  3.72  0.  0.
   374  3.73  0.  0.
   375  3.74  0.  0.
   376  3.75  0.  0.
   377  3.76  0.  0.
   378  3.77  0.  0.
   379  3.78  0.  0.
   380  3.79  0.  0.
   381  3.80  0.  0.
   382  3.81  0.  0.
   383  3.82  0.  0.
   384  3.83  0.  0.
   385  3.84  0.  0.
   386  3.85  0.  0.
   387  3.86  0.  0.
   388  3.87  0.  0.
   389  3.88  0.  0.
   390  3.89  0.  0.
   391  3.90  0.  0.
   392  3.91  0.  0.
   393  3.92  0.  0.
   394  3.93  0.  0.
   395  3.94  0.  0.
   396  3.95  0.  0.
   397  3.96  0.  0.
   398  3.97  0.  0.
   399  3.98  0.  0.
   400  3.99  0.  0.
   1                        -5.2101934575585E-01 -1.5149487276613E-01
     1  0.0000000000000E+00 -3.7002518928140E-11  1.2280023525824E-10
     2  1.0000000000000E-02 -5.0062714841320E-06  2.8677405453601E-04
     3  2.0000000000000E-02 -1.9259871501704E-05  1.1452965738602E-03
     4  3.0000000000000E-02 -4.0469006313040E-05  2.5701790705141E-03
     5  4.0000000000000E-02 -6.4826832144670E-05  4.5524754849446E-03
     6  5.0000000000000E-02 -8.7030606487747E-05  7.0797340909900E-03
     7  6.0000000000000E-02 -1.0030836538811E-04  1.0136069716143E-02
     8  7.0000000000000E-02 -9.6452993219740E-05  1.3702255833720E-02
     9  8.0000000000000E-02 -6.5863514430887E-05  1.7755835961257E-02
    10  9.0000000000000E-02  2.4065990400565E-06  2.2271253682041E-02
    11  1.0000000000000E-01  1.2059434585135E-04  2.7220000492666E-02
    12  1.1000000000000E-01  3.0216561332302E-04  3.2570780571397E-02
    13  1.2000000000000E-01  5.6174740187255E-04  3.8289691459097E-02
    14  1.3000000000000E-01  9.1505419239251E-04  4.4340419548948E-02
    15  1.4000000000000E-01  1.3788088212884E-03  5.0684449191927E-02
    16  1.5000000000000E-01  1.9706582543151E-03  5.7281284144039E-02
    17  1.6000000000000E-01  2.7090846741393E-03  6.4088680008791E-02
    18  1.7000000000000E-01  3.6133123186418E-03  7.1062886263439E-02
    19  1.8000000000000E-01  4.7032105259319E-03  7.8158896403553E-02
    20  1.9000000000000E-01  5.9991934591433E-03  8.5330704694264E-02
    21  2.0000000000000E-01  7.5221169981028E-03  9.2531567981185E-02
    22  2.1000000000000E-01  9.2931732965212E-03  9.9714270988084E-02
    23  2.2000000000000E-01  1.1333783512170E-02  1.0683139351325E-01
    24  2.3000000000000E-01  1.3665489223496E-02  1.1383557793045E-01
    25  2.4000000000000E-01  1.6309843049344E-02  1.2067979540626E-01
    26  2.5000000000000E-01  1.9288298988896E-02  1.2731760925995E-01
    27  2.6000000000000E-01  2.2622102996660E-02  1.3370343391776E-01
    28  2.7000000000000E-01  2.6332184302142E-02  1.3979278794858E-01
    29  2.8000000000000E-01  3.0439047976124E-02  1.4554253971261E-01
    30  2.9000000000000E-01  3.4962669235029E-02  1.5091114420919E-01
    31  3.0000000000000E-01  3.9922389961812E-02  1.5585886977283E-01
    32  3.1000000000000E-01  4.5336817906458E-02  1.6034801333819E-01
    33  3.2000000000000E-01  5.1223729011213E-02  1.6434310307461E-01
    34  3.3000000000000E-01  5.7599973285739E-02  1.6781108727802E-01
    35  3.4000000000000E-01  6.4481384635148E-02  1.7072150850192E-01
    36  3.5000000000000E-01  7.1882695019789E-02  1.7304666200972E-01
    37  3.6000000000000E-01  7.9817453299681E-02  1.7476173773665E-01
    38  3.7000000000000E-01  8.8297949089045E-02  1.7584494505985E-01
    39  3.8000000000000E-01  9.7335141917242E-02  1.7627761979044E-01
    40  3.9000000000000E-01  1.0693859596228E-01  1.7604431291932E-01
    41  4.0000000000000E-01  1.1711642059163E-01  1.7513286076895E-01
    42  4.1000000000000E-01  1.2787521691280E-01  1.7353443632561E-01
    43  4.2000000000000E-01  1.3922003050344E-01  1.7124358164988E-01
    44  4.3000000000000E-01  1.5115431045702E-01  1.6825822138583E-01
    45  4.4000000000000E-01  1.6367987484677E-01  1.6457965751191E-01
    46  4.5000000000000E-01  1.7679688267671E-01  1.6021254559641E-01
    47  4.6000000000000E-01  1.9050381235505E-01  1.5516485293939E-01
    48  4.7000000000000E-01  2.0479744669203E-01  1.4944779909621E-01
    49  4.8000000000000E-01  2.1967286439155E-01  1.4307577938959E-01
    50  4.9000000000000E-01  2.3512343797410E-01  1.3606627212207E-01
    51  5.0000000000000E-01  2.5114083803735E-01  1.2843973030084E-01
    52  5.1000000000000E-01  2.6771504373088E-01  1.2021945878124E-01
    53  5.2000000000000E-01  2.8483435929309E-01  1.1143147782136E-01
    54  5.3000000000000E-01  3.0248543647080E-01  1.0210437412035E-01
    55  5.4000000000000E-01  3.2065330261678E-01  9.2269140483841E-02
    56  5.5000000000000E-01  3.3932139423636E-01  8.1959005323033E-02
    57  5.6000000000000E-01  3.5847159573234E-01  7.1209253247948E-02
    58  5.7000000000000E-01  3.7808428307757E-01  6.0057038059634E-02
    59  5.8000000000000E-01  3.9813837212604E-01  4.8541189481660E-02
    60  5.9000000000000E-01  4.1861137125832E-01  3.6702014995942E-02
    61  6.0000000000000E-01  4.3947943804284E-01  2.4581098163390E-02
    62  6.1000000000000E-01  4.6071743958368E-01  1.2221094815122E-02
    63  6.2000000000000E-01  4.8229901621630E-01 -3.3447150520612E-04
    64  6.3000000000000E-01  5.0419664820609E-01 -1.3041413481992E-02
    65  6.4000000000000E-01  5.2638172510026E-01 -2.5855082010575E-02
    66  6.5000000000000E-01  5.4882461738148E-01 -3.8730564915523E-02
    67  6.6000000000000E-01  5.7149475007226E-01 -5.1622881142519E-02
    68  6.7000000000000E-01  5.9436067794135E-01 -6.4487169213759E-02
    69  6.8000000000000E-01  6.1739016196835E-01 -7.7278868799559E-02
    70  6.9000000000000E-01  6.4055024672945E-01 -8.9953894328234E-02
    71  7.0000000000000E-01  6.6380733837645E-01 -1.0246879963388E-01
    72  7.1000000000000E-01  6.8712728289169E-01 -1.1478093272676E-01
    73  7.2000000000000E-01  7.1047544431440E-01 -1.2684857986161E-01
    74  7.3000000000000E-01  7.3381678264838E-01 -1.3863109817640E-01
    75  7.4000000000000E-01  7.5711593117658E-01 -1.5008903627586E-01
    76  7.5000000000000E-01  7.8033727292582E-01 -1.6118424224048E-01
    77  7.6000000000000E-01  8.0344501604310E-01 -1.7187995865072E-01
    78  7.7000000000000E-01  8.2640326786478E-01 -1.8214090432908E-01
    79  7.8000000000000E-01  8.4917610748043E-01 -1.9193334261640E-01
    80  7.9000000000000E-01  8.7172765661423E-01 -2.0122513611325E-01
    81  8.0000000000000E-01  8.9402214866893E-01 -2.0998578793303E-01
    82  8.1000000000000E-01  9.1602399579918E-01 -2.1818646962626E-01
    83  8.2000000000000E-01  9.3769785390358E-01 -2.2580003604901E-01
    84  8.3000000000000E-01  9.5900868544709E-01 -2.3280102755710E-01
    85  8.4000000000000E-01  9.7992182004752E-01 -2.3916566001409E-01
    86  8.5000000000000E-01  1.0004030127815E+00 -2.4487180320341E-01
    87  8.6000000000000E-01  1.0204185001867E+00 -2.4989894833066E-01
    88  8.7000000000000E-01  1.0399350539570E+00 -2.5422816539403E-01
    89  8.8000000000000E-01  1.0589200323476E+00 -2.5784205128388E-01
    90  8.9000000000000E-01  1.0773414293253E+00 -2.6072466955053E-01
    91  9.0000000000000E-01  1.0951679215153E+00 -2.6286148284685E-01
    92  9.1000000000000E-01  1.1123689130140E+00 -2.6423927911416E-01
    93  9.2000000000000E-01  1.1289145781498E+00 -2.6484609263007E-01
    94  9.3000000000000E-01  1.1447759022880E+00 -2.6467112107939E-01
    95  9.4000000000000E-01  1.1599247207859E+00 -2.6370463984146E-01
    96  9.5000000000000E-01  1.1743337562152E+00 -2.6193791470816E-01
    97  9.6000000000000E-01  1.1879766539748E+00 -2.5936311425986E-01
    98  9.7000000000000E-01  1.2008280164244E+00 -2.5597322312583E-01
    99  9.8000000000000E-01  1.2128634356707E+00 -2.5176195734712E-01
   100  9.9000000000000E-01  1.2240595251437E+00 -2.4672368303894E-01
   101  1.0000000000000E+00  1.2343939500946E+00 -2.4085333951918E-01
   102  1.0100000000000E+00  1.2438454571522E+00 -2.3414636802744E-01
   103  1.0200000000000E+00  1.2523939030627E+00 -2.2659864710928E-01
   104  1.0300000000000E+00  1.2600202827385E+00 -2.1820643567716E-01
   105  1.0400000000000E+00  1.2667067567298E+00 -2.0896632469078E-01
   106  1.0500000000000E+00  1.2724366782243E+00 -1.9887519831867E-01
   107  1.0600000000000E+00  1.2771946196710E+00 -1.8793020535596E-01
   108  1.0700000000000E+00  1.2809663991074E+00 -1.7612874157704E-01
   109  1.0800000000000E+00  1.2837391062600E+00 -1.6346844359952E-01
   110  1.0900000000000E+00  1.2855011284688E+00 -1.4994719472690E-01
   111  1.1000000000000E+00  1.2862421764712E+00 -1.3556314312221E-01
   112  1.1100000000000E+00  1.2859533100643E+00 -1.2031473254736E-01
   113  1.1200000000000E+00  1.2846269636439E+00 -1.0420074577772E-01
   114  1.1300000000000E+00  1.2822569716009E+00 -8.7220360677920E-02
   115  1.1400000000000E+00  1.2788385935362E+00 -6.9373218795692E-02
   116  1.1500000000000E+00  1.2743685392347E+00 -5.0659506202975E-02
   117  1.1600000000000E+00  1.2688449933189E+00 -3.1080046184639E-02
   118  1.1700000000000E+00  1.2622676394843E+00 -1.0636403247929E-02
   119  1.1800000000000E+00  1.2546376841965E+00  1.0669002198679E-02
   120  1.1900000000000E+00  1.2459578797144E+00  3.2832769271732E-02
   121  1.2000000000000E+00  1.2362325462815E+00  5.5850383035068E-02
   122  1.2100000000000E+00  1.2254675933133E+00  7.9716072922713E-02
   123  1.2200000000000E+00  1.2136705393898E+00  1.0442266427295E-01
   124  1.2300000000000E+00  1.2008505308492E+00  1.2996142418413E-01
   125  1.2400000000000E+00  1.1870183587623E+00  1.5632190299398E-01
   126  1.2500000000000E+00  1.1721864740582E+00  1.8349177276771E-01
   127  1.2600000000000E+00  1.1563690005581E+00  2.1145666425337E-01
   128  1.2700000000000E+00  1.1395817456685E+00  2.4020000382653E-01
   129  1.2800000000000E+00  1.1218422084758E+00  2.6970285199883E-01
   130  1.2900000000000E+00  1.1031695849821E+00  2.9994374510632E-01
   131  1.3000000000000E+00  1.0835847702182E+00  3.3089854182284E-01
   132  1.3100000000000E+00  1.0631103569706E+00  3.6254027616087E-01
   133  1.3200000000000E+00  1.0417706308613E+00  3.9483901862707E-01
   134  1.3300000000000E+00  1.0195915615250E+00  4.2776174719129E-01
   135  1.3400000000000E+00  9.9660078963310E-01  4.6127222970732E-01
   136  1.3500000000000E+00  9.7282760952789E-01  4.9533091938910E-01
   137  1.3600000000000E+00  9.4830294723686E-01  5.2989486489983E-01
   138  1.3700000000000E+00  9.2305933365693E-01  5.6491763655147E-01
   139  1.3800000000000E+00  8.9713087271146E-01  6.0034927004063E-01
   140  1.3900000000000E+00  8.7055320430410E-01  6.3613622906233E-01
   141  1.4000000000000E+00  8.4336346191388E-01  6.7222138804758E-01
   142  1.4100000000000E+00  8.1560022469982E-01  7.0854403616405E-01
   143  1.4200000000000E+00  7.8730346400848E-01  7.4503990360154E-01
   144  1.4300000000000E+00  7.5851448420506E-01  7.8164121103701E-01
   145  1.4400000000000E+00  7.2927585777751E-01  8.1827674303791E-01