Ca    ONCVPSP-4.0.1  r_core=   2.27764   2.50641   2.66093
     20.0000     10.0000      230118    zatom,zion,pspd
     8       2   2     4   400     0    pspcod,pspxc,lmax,lloc,mmax,r2well
  3.99000000  6.00000000  0.00000000    rchrg fchrg qchrg
     2     2     2     0     0    nproj
     1     1           extension_switch
   0                         3.5672068449079E+00  5.0300292151295E-01
     1  0.0000000000000E+00 -3.8990477513323E-12  5.4958346901168E-12
     2  1.0000000000000E-02  5.1738237172729E-02 -2.0302961608095E-03
     3  2.0000000000000E-02  1.0339851146086E-01 -4.0222601631260E-03
     4  3.0000000000000E-02  1.5490300061494E-01 -5.9376690764087E-03
     5  4.0000000000000E-02  2.0617416334052E-01 -7.7385180858226E-03
     6  5.0000000000000E-02  2.5713487898839E-01 -9.3871287009576E-03
     7  6.0000000000000E-02  3.0770858630285E-01 -1.0846255949465E-02
     8  7.0000000000000E-02  3.5781942091849E-01 -1.2079194223622E-02
     9  8.0000000000000E-02  4.0739235129999E-01 -1.3049881453327E-02
    10  9.0000000000000E-02  4.5635331282401E-01 -1.3723001285748E-02
    11  1.0000000000000E-01  5.0462933970820E-01 -1.4064082959944E-02
    12  1.1000000000000E-01  5.5214869449877E-01 -1.4039598574009E-02
    13  1.2000000000000E-01  5.9884099483560E-01 -1.3617057452771E-02
    14  1.3000000000000E-01  6.4463733722228E-01 -1.2765097335771E-02
    15  1.4000000000000E-01  6.8947041753735E-01 -1.1453572117883E-02
    16  1.5000000000000E-01  7.3327464803310E-01 -9.6536358887420E-03
    17  1.6000000000000E-01  7.7598627057868E-01 -7.3378230318340E-03
    18  1.7000000000000E-01  8.1754346591584E-01 -4.4801241597714E-03
    19  1.8000000000000E-01  8.5788645870700E-01 -1.0560576785258E-03
    20  1.9000000000000E-01  8.9695761816846E-01  2.9572632090842E-03
    21  2.0000000000000E-01  9.3470155409410E-01  7.5810682330210E-03
    22  2.1000000000000E-01  9.7106520808867E-01  1.2834872672186E-02
    23  2.2000000000000E-01  1.0059979398434E+00  1.8736424992225E-02
    24  2.3000000000000E-01  1.0394516083017E+00  2.5301659620186E-02
    25  2.4000000000000E-01  1.0713806475758E+00  3.2544654952305E-02
    26  2.5000000000000E-01  1.1017421374923E+00  4.0477596670833E-02
    27  2.6000000000000E-01  1.1304958686572E+00  4.9110746426342E-02
    28  2.7000000000000E-01  1.1576044019479E+00  5.8452415921725E-02
    29  2.8000000000000E-01  1.1830331223545E+00  6.8508946414541E-02
    30  2.9000000000000E-01  1.2067502871077E+00  7.9284693634397E-02
    31  3.0000000000000E-01  1.2287270680448E+00  9.0782018092931E-02
    32  3.1000000000000E-01  1.2489375881848E+00  1.0300128074465E-01
    33  3.2000000000000E-01  1.2673589524910E+00  1.1594084393852E-01
    34  3.3000000000000E-01  1.2839712728224E+00  1.2959707758205E-01
    35  3.4000000000000E-01  1.2987576870839E+00  1.4396437042193E-01
    36  3.5000000000000E-01  1.3117043726017E+00  1.5903514632915E-01
    37  3.6000000000000E-01  1.3228005537645E+00  1.7479988545968E-01
    38  3.7000000000000E-01  1.3320385039828E+00  1.9124715014762E-01
    39  3.8000000000000E-01  1.3394135420328E+00  2.0836361537285E-01
    40  3.9000000000000E-01  1.3449240228643E+00  2.2613410363206E-01
    41  4.0000000000000E-01  1.3485713229611E+00  2.4454162403055E-01
    42  4.1000000000000E-01  1.3503598203569E+00  2.6356741539994E-01
    43  4.2000000000000E-01  1.3502968694181E+00  2.8319099323815E-01
    44  4.3000000000000E-01  1.3483927705156E+00  3.0339020025845E-01
    45  4.4000000000000E-01  1.3446607347176E+00  3.2414126032723E-01
    46  4.5000000000000E-01  1.3391168436413E+00  3.4541883556357E-01
    47  4.6000000000000E-01  1.3317800046141E+00  3.6719608636894E-01
    48  4.7000000000000E-01  1.3226719012957E+00  3.8944473415107E-01
    49  4.8000000000000E-01  1.3118169399253E+00  4.1213512650413E-01
    50  4.9000000000000E-01  1.2992421913581E+00  4.3523630460549E-01
    51  5.0000000000000E-01  1.2849773290640E+00  4.5871607258965E-01
    52  5.1000000000000E-01  1.2690545632643E+00  4.8254106866131E-01
    53  5.2000000000000E-01  1.2515085713832E+00  5.0667683771139E-01
    54  5.3000000000000E-01  1.2323764249989E+00  5.3108790520417E-01
    55  5.4000000000000E-01  1.2116975134748E+00  5.5573785210797E-01
    56  5.5000000000000E-01  1.1895134644572E+00  5.8058939064783E-01
    57  5.6000000000000E-01  1.1658680614234E+00  6.0560444066552E-01
    58  5.7000000000000E-01  1.1408071584665E+00  6.3074420638014E-01
    59  5.8000000000000E-01  1.1143785924997E+00  6.5596925335121E-01
    60  5.9000000000000E-01  1.0866320930643E+00  6.8123958545596E-01
    61  6.0000000000000E-01  1.0576191899208E+00  7.0651472170283E-01
    62  6.1000000000000E-01  1.0273931186038E+00  7.3175377271428E-01
    63  6.2000000000000E-01  9.9600872411445E-01  7.5691551672358E-01
    64  6.3000000000000E-01  9.6352236292364E-01  7.8195847494279E-01
    65  6.4000000000000E-01  9.2999180345513E-01  8.0684098617133E-01
    66  6.5000000000000E-01  8.9547612521263E-01  8.3152128052754E-01
    67  6.6000000000000E-01  8.6003561671184E-01  8.5595755219907E-01
    68  6.7000000000000E-01  8.2373167237318E-01  8.8010803112087E-01
    69  6.8000000000000E-01  7.8662668852673E-01  9.0393105350276E-01
    70  6.9000000000000E-01  7.4878395867580E-01  9.2738513114226E-01
    71  7.0000000000000E-01  7.1026756816093E-01  9.5042901947059E-01
    72  7.1000000000000E-01  6.7114228836114E-01  9.7302178429325E-01
    73  7.2000000000000E-01  6.3147347056431E-01  9.9512286719823E-01
    74  7.3000000000000E-01  5.9132693963394E-01  1.0166921496174E+00
    75  7.4000000000000E-01  5.5076888759513E-01  1.0376900155371E+00
    76  7.5000000000000E-01  5.0986576725743E-01  1.0580774128656E+00
    77  7.6000000000000E-01  4.6868418598906E-01  1.0778159134741E+00
    78  7.7000000000000E-01  4.2729079975201E-01  1.0968677719367E+00
    79  7.8000000000000E-01  3.8575220750455E-01  1.1151959830051E+00
    80  7.9000000000000E-01  3.4413484607411E-01  1.1327643378570E+00
    81  8.0000000000000E-01  3.0250488560062E-01  1.1495374791676E+00
    82  8.1000000000000E-01  2.6092812564755E-01  1.1654809550555E+00
    83  8.2000000000000E-01  2.1946989207648E-01  1.1805612719599E+00
    84  8.3000000000000E-01  1.7819493477837E-01  1.1947459465075E+00
    85  8.4000000000000E-01  1.3716732635454E-01  1.2080035564302E+00
    86  8.5000000000000E-01  9.6450361838556E-02  1.2203037905940E+00
    87  8.6000000000000E-01  5.6106459550944E-02  1.2316174981993E+00
    88  8.7000000000000E-01  1.6197063178056E-02  1.2419167372097E+00
    89  8.8000000000000E-01 -2.3217454832357E-02  1.2511748220642E+00
    90  8.9000000000000E-01 -6.2077888465544E-02  1.2593663707212E+00
    91  9.0000000000000E-01 -1.0032629182891E-01  1.2664673510794E+00
    92  9.1000000000000E-01 -1.3790607123892E-01  1.2724551268104E+00
    93  9.2000000000000E-01 -1.7476207560620E-01  1.2773085026325E+00
    94  9.3000000000000E-01 -2.1084068501647E-01  1.2810077690448E+00
    95  9.4000000000000E-01 -2.4608989740171E-01  1.2835347465298E+00
    96  9.5000000000000E-01 -2.8045941319290E-01  1.2848728292229E+00
    97  9.6000000000000E-01 -3.1390071784121E-01  1.2850070280335E+00
    98  9.7000000000000E-01 -3.4636716209137E-01  1.2839240131918E+00
    99  9.8000000000000E-01 -3.7781403988622E-01  1.2816121561792E+00
   100  9.9000000000000E-01 -4.0819866377764E-01  1.2780615709886E+00
   101  1.0000000000000E+00 -4.3748043771448E-01  1.2732641546445E+00
   102  1.0100000000000E+00 -4.6562092707398E-01  1.2672136268996E+00
   103  1.0200000000000E+00 -4.9258392579909E-01  1.2599055690076E+00
   104  1.0300000000000E+00 -5.1833552049955E-01  1.2513374614586E+00
   105  1.0400000000000E+00 -5.4284415137144E-01  1.2415087205466E+00
   106  1.0500000000000E+00 -5.6608066978550E-01  1.2304207336247E+00
   107  1.0600000000000E+00 -5.8801839239195E-01  1.2180768928889E+00
   108  1.0700000000000E+00 -6.0863315158603E-01  1.2044826275158E+00
   109  1.0800000000000E+00 -6.2790334217660E-01  1.1896454339667E+00
   110  1.0900000000000E+00 -6.4580996409782E-01  1.1735749042582E+00
   111  1.1000000000000E+00 -6.6233666100298E-01  1.1562827519845E+00
   112  1.1100000000000E+00 -6.7746975457849E-01  1.1377828358691E+00
   113  1.1200000000000E+00 -6.9119827441671E-01  1.1180911806086E+00
   114  1.1300000000000E+00 -7.0351398328651E-01  1.0972259947674E+00
   115  1.1400000000000E+00 -7.1441139764266E-01  1.0752076854690E+00
   116  1.1500000000000E+00 -7.2388780321726E-01  1.0520588696280E+00
   117  1.1600000000000E+00 -7.3194326554030E-01  1.0278043814584E+00
   118  1.1700000000000E+00 -7.3858063524053E-01  1.0024712759917E+00
   119  1.1800000000000E+00 -7.4380554798338E-01  9.7608882833853E-01
   120  1.1900000000000E+00 -7.4762641890918E-01  9.4868852842365E-01
   121  1.2000000000000E+00 -7.5005443144210E-01  9.2030407093030E-01
   122  1.2100000000000E+00 -7.5110352034919E-01  8.9097134019067E-01
   123  1.2200000000000E+00 -7.5079034893807E-01  8.6072838976671E-01
   124  1.2300000000000E+00 -7.4913428029263E-01  8.2961541647225E-01
   125  1.2400000000000E+00 -7.4615734245781E-01  7.9767472859747E-01
   126  1.2500000000000E+00 -7.4188418749724E-01  7.6495070810826E-01
   127  1.2600000000000E+00 -7.3634204436109E-01  7.3148976660621E-01
   128  1.2700000000000E+00 -7.2956066551654E-01  6.9734029485094E-01
   129  1.2800000000000E+00 -7.2157226730846E-01  6.6255260566336E-01
   130  1.2900000000000E+00 -7.1241146403502E-01  6.2717887004775E-01
   131  1.3000000000000E+00 -7.0211519573971E-01  5.9127304639162E-01
   132  1.3100000000000E+00 -6.9072264974017E-01  5.5489080262468E-01
   133  1.3200000000000E+00 -6.7827517593232E-01  5.1808943124268E-01
   134  1.3300000000000E+00 -6.6481619592857E-01  4.8092775712737E-01
   135  1.3400000000000E+00 -6.5039110610845E-01  4.4346603812125E-01
   136  1.3500000000000E+00 -6.3504717468098E-01  4.0576585834385E-01
   137  1.3600000000000E+00 -6.1883343287855E-01  3.6789001426571E-01
   138  1.3700000000000E+00 -6.0180056042393E-01  3.2990239358707E-01
   139  1.3800000000000E+00 -5.8400076543279E-01  2.9186784699890E-01
   140  1.3900000000000E+00 -5.6548765893609E-01  2.5385205293650E-01
   141  1.4000000000000E+00 -5.4631612422775E-01  2.1592137546745E-01
   142  1.4100000000000E+00 -5.2654218126441E-01  1.7814271548904E-01
   143  1.4200000000000E+00 -5.0622284636501E-01  1.4058335544255E-01
   144  1.4300000000000E+00 -4.8541598747851E-01  1.0331079778463E-01
   145  1.4400000000000E+00 -4.6418017530800E-01  6.6392597488135E-02
   146  1.4500000000000E+00 -4.4257453059898E-01  2.9896188876877E-02
   147  1.4600000000000E+00 -4.2065856791799E-01 -6.1112928703440E-03
   148  1.4700000000000E+00 -3.9849203626579E-01 -4.1563195180670E-02
   149  1.4800000000000E+00 -3.7613475688573E-01 -7.6393536118198E-02
   150  1.4900000000000E+00 -3.5364645864373E-01 -1.1053719656234E-01
   151  1.5000000000000E+00 -3.3108661137061E-01 -1.4393011608429E-01
   152  1.5100000000000E+00 -3.0851425757059E-01 -1.7650949204777E-01
   153  1.5200000000000E+00 -2.8598784291126E-01 -2.0821398143715E-01
   154  1.5300000000000E+00 -2.6356504592067E-01 -2.3898390489519E-01
   155  1.5400000000000E+00 -2.4130260732529E-01 -2.6876145243397E-01
   156  1.5500000000000E+00 -2.1925615946962E-01 -2.9749089026605E-01
   157  1.5600000000000E+00 -1.9748005626307E-01 -3.2511876818899E-01
   158  1.5700000000000E+00 -1.7602720410292E-01 -3.5159412694513E-01
   159  1.5800000000000E+00 -1.5494889422331E-01 -3.7686870496941E-01
   160  1.5900000000000E+00 -1.3429463691969E-01 -4.0089714393277E-01
   161  1.6000000000000E+00 -1.1411199809530E-01 -4.2363719248510E-01
   162  1.6100000000000E+00 -9.4446438571542E-02 -4.4504990760199E-01
   163  1.6200000000000E+00 -7.5341156597646E-02 -4.6509985294236E-01
   164  1.6300000000000E+00 -5.6836933985976E-02 -4.8375529363003E-01
   165  1.6400000000000E+00 -3.8971986288739E-02 -5.0098838688143E-01
   166  1.6500000000000E+00 -2.1781817419183E-02 -5.1677536791354E-01
   167  1.6600000000000E+00 -5.2990791054286E-03 -5.3109673058143E-01
   168  1.6700000000000E+00  1.0446564451334E-02 -5.4393740221280E-01
   169  1.6800000000000E+00  2.5428566361200E-02 -5.5528691212787E-01
   170  1.6900000000000E+00  3.9623620939613E-02 -5.6513955335702E-01
   171  1.7000000000000E+00  5.3011781400421E-02 -5.7349453709499E-01
   172  1.7100000000000E+00  6.5576571060789E-02 -5.8035613946004E-01
   173  1.7200000000000E+00  7.7305087796178E-02 -5.8573384015786E-01
   174  1.7300000000000E+00  8.8188101510195E-02 -5.8964245268481E-01
   175  1.7400000000000E+00  9.8220144412097E-02 -5.9210224574064E-01
   176  1.7500000000000E+00  1.0739959397558E-01 -5.9313905566465E-01
   177  1.7600000000000E+00  1.1572874861718E-01 -5.9278439000826E-01
   178  1.7700000000000E+00  1.2321388955827E-01 -5.9107550912855E-01
   179  1.7800000000000E+00  1.2986532447341E-01 -5.8805547657657E-01
   180  1.7900000000000E+00  1.3569656876847E-01 -5.8377147536330E-01
   181  1.8000000000000E+00  1.4072329054181E-01 -5.7827269507708E-01
   182  1.8100000000000E+00  1.4496302797755E-01 -5.7160981921208E-01
   183  1.8200000000000E+00  1.4843516915991E-01 -5.6383505271996E-01
   184  1.8300000000000E+00  1.5116088124106E-01 -5.5500204975681E-01
   185  1.8400000000000E+00  1.5316304179776E-01 -5.4516584982965E-01
   186  1.8500000000000E+00  1.5446616418945E-01 -5.3438280525315E-01
   187  1.8600000000000E+00  1.5509631671259E-01 -5.2271049933771E-01
   188  1.8700000000000E+00  1.5508103601538E-01 -5.1020765605551E-01
   189  1.8800000000000E+00  1.5444923501822E-01 -4.9693404147227E-01
   190  1.8900000000000E+00  1.5323110561072E-01 -4.8295035727230E-01
   191  1.9000000000000E+00  1.5145801642013E-01 -4.6831812674258E-01
   192  1.9100000000000E+00  1.4916240596994E-01 -4.5309957361999E-01
   193  1.9200000000000E+00  1.4637767156989E-01 -4.3735749424138E-01
   194  1.9300000000000E+00  1.4313805429969E-01 -4.2115512347062E-01
   195  1.9400000000000E+00  1.3947852046911E-01 -4.0455599490980E-01
   196  1.9500000000000E+00  1.3543463995563E-01 -3.8762379593177E-01
   197  1.9600000000000E+00  1.3104246183796E-01 -3.7042221810019E-01
   198  1.9700000000000E+00  1.2633838775946E-01 -3.5301480356919E-01
   199  1.9800000000000E+00  1.2135904346914E-01 -3.3546478807807E-01
   200  1.9900000000000E+00  1.1614114899996E-01 -3.1783494117766E-01
   201  2.0000000000000E+00  1.1072138795483E-01 -3.0018740434331E-01
   202  2.0100000000000E+00  1.0513627637819E-01 -2.8258352764447E-01
   203  2.0200000000000E+00  9.9422031698114E-02 -2.6508370565313E-01
   204  2.0300000000000E+00  9.3614442227559E-02 -2.4774721328301E-01
   205  2.0400000000000E+00  8.7748737715656E-02 -2.3063204225682E-01
   206  2.0500000000000E+00  8.1859461440282E-02 -2.1379473890269E-01
   207  2.0600000000000E+00  7.5980344330683E-02 -1.9729024397987E-01
   208  2.0700000000000E+00  7.0144181604848E-02 -1.8117173523050E-01
   209  2.0800000000000E+00  6.4382712400063E-02 -1.6549047334759E-01
   210  2.0900000000000E+00  5.8726502865967E-02 -1.5029565203840E-01
   211  2.1000000000000E+00  5.3204833180232E-02 -1.3563425285116E-01
   212  2.1100000000000E+00  4.7845588932715E-02 -1.2155090541421E-01
   213  2.1200000000000E+00  4.2675157380353E-02 -1.0808775384152E-01
   214  2.1300000000000E+00  3.7718330091588E-02 -9.5284331843704E-02
   215  2.1400000000000E+00  3.2998194337027E-02 -8.3177415742251E-02
   216  2.1500000000000E+00  2.8536101114943E-02 -7.1801006946367E-02
   217  2.1600000000000E+00  2.4351504418705E-02 -6.1186095048555E-02
   218  2.1700000000000E+00  2.0461123672565E-02 -5.1359213491725E-02
   219  2.1800000000000E+00  1.6878393940219E-02 -4.2341481592673E-02
   220  2.1900000000000E+00  1.3617274758043E-02 -3.4155308881827E-02
   221  2.2000000000000E+00  1.0690261295095E-02 -2.6820988246670E-02
   222  2.2100000000000E+00  8.1072989252184E-03 -2.0354832426813E-02
   223  2.2200000000000E+00  5.8760751691146E-03 -1.4769687417872E-02
   224  2.2300000000000E+00  4.0019339413664E-03 -1.0074794902110E-02
   225  2.2400000000000E+00  2.4882813675025E-03 -6.2768512191787E-03
   226  2.2500000000000E+00  1.3346018182317E-03 -3.3749223691747E-03
   227  2.2600000000000E+00  5.3616229205780E-04 -1.3597287784565E-03
   228  2.2700000000000E+00  1.1391823450159E-04 -2.8994528380774E-04
   229  2.2800000000000E+00 -1.1398553281701E-05  2.9077066252644E-05
   230  2.2900000000000E+00 -3.1113111128617E-06  7.9525131059346E-06
   231  2.30  0. -0.
   232  2.31 -0.  0.
   233  2.32 -0. -0.
   234  2.33 -0. -0.
   235  2.34  0.  0.
   236  2.35  0.  0.
   237  2.36  0.  0.
   238  2.37  0.  0.
   239  2.38  0.  0.
   240  2.39  0.  0.
   241  2.40  0.  0.
   242  2.41  0.  0.
   243  2.42  0.  0.
   244  2.43  0.  0.
   245  2.44  0.  0.
   246  2.45  0.  0.
   247  2.46  0.  0.
   248  2.47  0.  0.
   249  2.48  0.  0.
   250  2.49  0.  0.
   251  2.50  0.  0.
   252  2.51  0.  0.
   253  2.52  0.  0.
   254  2.53  0.  0.
   255  2.54  0.  0.
   256  2.55  0.  0.
   257  2.56  0.  0.
   258  2.57  0.  0.
   259  2.58  0.  0.
   260  2.59  0.  0.
   261  2.60  0.  0.
   262  2.61  0.  0.
   263  2.62  0.  0.
   264  2.63  0.  0.
   265  2.64  0.  0.
   266  2.65  0.  0.
   267  2.66  0.  0.
   268  2.67  0.  0.
   269  2.68  0.  0.
   270  2.69  0.  0.
   271  2.70  0.  0.
   272  2.71  0.  0.
   273  2.72  0.  0.
   274  2.73  0.  0.
   275  2.74  0.  0.
   276  2.75  0.  0.
   277  2.76  0.  0.
   278  2.77  0.  0.
   279  2.78  0.  0.
   280  2.79  0.  0.
   281  2.80  0.  0.
   282  2.81  0.  0.
   283  2.82  0.  0.
   284  2.83  0.  0.
   285  2.84  0.  0.
   286  2.85  0.  0.
   287  2.86  0.  0.
   288  2.87  0.  0.
   289  2.88  0.  0.
   290  2.89  0.  0.
   291  2.90  0.  0.
   292  2.91  0.  0.
   293  2.92  0.  0.
   294  2.93  0.  0.
   295  2.94  0.  0.
   296  2.95  0.  0.
   297  2.96  0.  0.
   298  2.97  0.  0.
   299  2.98  0.  0.
   300  2.99  0.  0.
   301  3.00  0.  0.
   302  3.01  0.  0.
   303  3.02  0.  0.
   304  3.03  0.  0.
   305  3.04  0.  0.
   306  3.05  0.  0.
   307  3.06  0.  0.
   308  3.07  0.  0.
   309  3.08  0.  0.
   310  3.09  0.  0.
   311  3.10  0.  0.
   312  3.11  0.  0.
   313  3.12  0.  0.
   314  3.13  0.  0.
   315  3.14  0.  0.
   316  3.15  0.  0.
   317  3.16  0.  0.
   318  3.17  0.  0.
   319  3.18  0.  0.
   320  3.19  0.  0.
   321  3.20  0.  0.
   322  3.21  0.  0.
   323  3.22  0.  0.
   324  3.23  0.  0.
   325  3.24  0.  0.
   326  3.25  0.  0.
   327  3.26  0.  0.
   328  3.27  0.  0.
   329  3.28  0.  0.
   330  3.29  0.  0.
   331  3.30  0.  0.
   332  3.31  0.  0.
   333  3.32  0.  0.
   334  3.33  0.  0.
   335  3.34  0.  0.
   336  3.35  0.  0.
   337  3.36  0.  0.
   338  3.37  0.  0.
   339  3.38  0.  0.
   340  3.39  0.  0.
   341  3.40  0.  0.
   342  3.41  0.  0.
   343  3.42  0.  0.
   344  3.43  0.  0.
   345  3.44  0.  0.
   346  3.45  0.  0.
   347  3.46  0.  0.
   348  3.47  0.  0.
   349  3.48  0.  0.
   350  3.49  0.  0.
   351  3.50  0.  0.
   352  3.51  0.  0.
   353  3.52  0.  0.
   354  3.53  0.  0.
   355  3.54  0.  0.
   356  3.55  0.  0.
   357  3.56  0.  0.
   358  3.57  0.  0.
   359  3.58  0.  0.
   360  3.59  0.  0.
   361  3.60  0.  0.
   362  3.61  0.  0.
   363  3.62  0.  0.
   364  3.63  0.  0.
   365  3.64  0.  0.
   366  3.65  0.  0.
   367  3.66  0.  0.
   368  3.67  0.  0.
   369  3.68  0.  0.
   370  3.69  0.  0.
   371  3.70  0.  0.
   372  3.71  0.  0.
   373  3.72  0.  0.
   374  3.73  0.  0.
   375  3.74  0.  0.
   376  3.75  0.  0.
   377  3.76  0.  0.
   378  3.77  0.  0.
   379  3.78  0.  0.
   380  3.79  0.  0.
   381  3.80  0.  0.
   382  3.81  0.  0.
   383  3.82  0.  0.
   384  3.83  0.  0.
   385  3.84  0.  0.
   386  3.85  0.  0.
   387  3.86  0.  0.
   388  3.87  0.  0.
   389  3.88  0.  0.
   390  3.89  0.  0.
   391  3.90  0.  0.
   392  3.91  0.  0.
   393  3.92  0.  0.
   394  3.93  0.  0.
   395  3.94  0.  0.
   396  3.95  0.  0.
   397  3.96  0.  0.
   398  3.97  0.  0.
   399  3.98  0.  0.
   400  3.99  0.  0.
   1                        -6.5881588744258E-01 -1.6527211703961E-01
     1  0.0000000000000E+00 -2.2892779685812E-11  4.7043070827701E-11
     2  1.0000000000000E-02  1.1433137950691E-04  3.6196585920140E-04
     3  2.0000000000000E-02  4.5786937389223E-04  1.4460714285963E-03
     4  3.0000000000000E-02  1.0322425268225E-03  3.2469478019359E-03
     5  4.0000000000000E-02  1.8401550099182E-03  5.7556705055792E-03
     6  5.0000000000000E-02  2.8853715626833E-03  8.9597949680800E-03
     7  6.0000000000000E-02  4.1726964914607E-03  1.2843406007128E-02
     8  7.0000000000000E-02  5.7079468102903E-03  1.7387181163486E-02
     9  8.0000000000000E-02  7.4979196294404E-03  2.2568467664525E-02
    10  9.0000000000000E-02  9.5503539203129E-03  2.8361372752335E-02
    11  1.0000000000000E-01  1.1873886807605E-02  3.4736867065784E-02
    12  1.1000000000000E-01  1.4478004561382E-02  4.1662900719981E-02
    13  1.2000000000000E-01  1.7372988482796E-02  4.9104531683219E-02
    14  1.3000000000000E-01  2.0569855897604E-02  5.7024066007840E-02
    15  1.4000000000000E-01  2.4080296491303E-02  6.5381209430337E-02
    16  1.5000000000000E-01  2.7916604238342E-02  7.4133229816030E-02
    17  1.6000000000000E-01  3.2091605195974E-02  8.3235129884603E-02
    18  1.7000000000000E-01  3.6618581449912E-02  9.2639829617000E-02
    19  1.8000000000000E-01  4.1511191515021E-02  1.0229835770857E-01
    20  1.9000000000000E-01  4.6783387508903E-02  1.1216005140071E-01
    21  2.0000000000000E-01  5.2449329429799E-02  1.2217276399285E-01
    22  2.1000000000000E-01  5.8523296882732E-02  1.3228307930708E-01
    23  2.2000000000000E-01  6.5019598608788E-02  1.4243653235236E-01
    24  2.3000000000000E-01  7.1952480182400E-02  1.5257783541042E-01
    25  2.4000000000000E-01  7.9336030249944E-02  1.6265110874428E-01
    26  2.5000000000000E-01  8.7184085690125E-02  1.7260011511095E-01
    27  2.6000000000000E-01  9.5510136082406E-02  1.8236849724360E-01
    28  2.7000000000000E-01  1.0432722787411E-01  1.9190001745415E-01
    29  2.8000000000000E-01  1.1364786863969E-01  2.0113879849632E-01
    30  2.9000000000000E-01  1.2348393182724E-01  2.1002956482059E-01
    31  3.0000000000000E-01  1.3384656238737E-01  2.1851788334644E-01
    32  3.1000000000000E-01  1.4474608367802E-01  2.2655040287457E-01
    33  3.2000000000000E-01  1.5619190603621E-01  2.3407509126152E-01
    34  3.3000000000000E-01  1.6819243740325E-01  2.4104146948157E-01
    35  3.4000000000000E-01  1.8075499638424E-01  2.4740084170631E-01
    36  3.5000000000000E-01  1.9388572811569E-01  2.5310652054083E-01
    37  3.6000000000000E-01  2.0758952330658E-01  2.5811404656605E-01
    38  3.7000000000000E-01  2.2186994080823E-01  2.6238140135104E-01
    39  3.8000000000000E-01  2.3672913405727E-01  2.6586921311558E-01
    40  3.9000000000000E-01  2.5216778172367E-01  2.6854095424277E-01
    41  4.0000000000000E-01  2.6818502288177E-01  2.7036312986358E-01
    42  4.1000000000000E-01  2.8477839700769E-01  2.7130545675989E-01
    43  4.2000000000000E-01  3.0194378909025E-01  2.7134103186008E-01
    44  4.3000000000000E-01  3.1967538012552E-01  2.7044648963116E-01
    45  4.4000000000000E-01  3.3796560324680E-01  2.6860214770367E-01
    46  4.5000000000000E-01  3.5680510572277E-01  2.6579214010055E-01
    47  4.6000000000000E-01  3.7618271703648E-01  2.6200453747805E-01
    48  4.7000000000000E-01  3.9608542323691E-01  2.5723145382652E-01
    49  4.8000000000000E-01  4.1649834773314E-01  2.5146913911964E-01
    50  4.9000000000000E-01  4.3740473867868E-01  2.4471805744505E-01
    51  5.0000000000000E-01  4.5878596307078E-01  2.3698295019386E-01
    52  5.1000000000000E-01  4.8062150766560E-01  2.2827288393424E-01
    53  5.2000000000000E-01  5.0288898678633E-01  2.1860128264309E-01
    54  5.3000000000000E-01  5.2556415707695E-01  2.0798594401988E-01
    55  5.4000000000000E-01  5.4862093922930E-01  1.9644903965890E-01
    56  5.5000000000000E-01  5.7203144668661E-01  1.8401709890913E-01
    57  5.6000000000000E-01  5.9576602130123E-01  1.7072097630496E-01
    58  5.7000000000000E-01  6.1979327589934E-01  1.5659580250648E-01
    59  5.8000000000000E-01  6.4408014368019E-01  1.4168091874354E-01
    60  5.9000000000000E-01  6.6859193435277E-01  1.2601979481506E-01
    61  6.0000000000000E-01  6.9329239688756E-01  1.0965993075149E-01
    62  6.1000000000000E-01  7.1814378873717E-01  9.2652742306079E-02
    63  6.2000000000000E-01  7.4310695135502E-01  7.5053430498274E-02
    64  6.3000000000000E-01  7.6814139181805E-01  5.6920835489627E-02
    65  6.4000000000000E-01  7.9320537033623E-01  3.8317275130345E-02
    66  6.5000000000000E-01  8.1825599340917E-01  1.9308368571101E-02
    67  6.6000000000000E-01  8.4324931236851E-01 -3.7154608715298E-05
    68  6.7000000000000E-01  8.6814042702396E-01 -1.9647659249991E-02
    69  6.8000000000000E-01  8.9288359411054E-01 -3.9448822878864E-02
    70  6.9000000000000E-01  9.1743234021569E-01 -5.9363866773517E-02
    71  7.0000000000000E-01  9.4173957884684E-01 -7.9313799166310E-02
    72  7.1000000000000E-01  9.6575773128271E-01 -9.9217669864622E-02
    73  7.2000000000000E-01  9.8943885083629E-01 -1.1899283552490E-01
    74  7.3000000000000E-01  1.0127347501420E+00 -1.3855523476766E-01
    75  7.4000000000000E-01  1.0355971310668E+00 -1.5781967227669E-01
    76  7.5000000000000E-01  1.0579777168331E+00 -1.7670011098328E-01
    77  7.6000000000000E-01  1.0798283859287E+00 -1.9510997139663E-01
    78  7.7000000000000E-01  1.1011013073729E+00 -2.1296243710386E-01
    79  7.8000000000000E-01  1.1217490768969E+00 -2.3017076542976E-01
    80  7.9000000000000E-01  1.1417248535922E+00 -2.4664860221391E-01
    81  8.0000000000000E-01  1.1609824965744E+00 -2.6231029963552E-01
    82  8.1000000000000E-01  1.1794767012081E+00 -2.7707123599115E-01
    83  8.2000000000000E-01  1.1971631344353E+00 -2.9084813630909E-01
    84  8.3000000000000E-01  1.2139985687493E+00 -3.0355939266658E-01
    85  8.4000000000000E-01  1.2299410143606E+00 -3.1512538306206E-01
    86  8.5000000000000E-01  1.2449498490985E+00 -3.2546878768410E-01
    87  8.6000000000000E-01  1.2589859456030E+00 -3.3451490141311E-01
    88  8.7000000000000E-01  1.2720117953631E+00 -3.4219194138951E-01
    89  8.8000000000000E-01  1.2839916291676E+00 -3.4843134848350E-01
    90  8.9000000000000E-01  1.2948915335425E+00 -3.5316808150914E-01
    91  9.0000000000000E-01  1.3046795627618E+00 -3.5634090303439E-01
    92  9.1000000000000E-01  1.3133258460285E+00 -3.5789265565487E-01
    93  9.2000000000000E-01  1.3208026894379E+00 -3.5777052761754E-01
    94  9.3000000000000E-01  1.3270846723506E+00 -3.5592630670411E-01
    95  9.4000000000000E-01  1.3321487378178E+00 -3.5231662131199E-01
    96  9.5000000000000E-01  1.3359742767219E+00 -3.4690316770280E-01
    97  9.6000000000000E-01  1.3385432053124E+00 -3.3965292242449E-01
    98  9.7000000000000E-01  1.3398400358386E+00 -3.3053833895428E-01
    99  9.8000000000000E-01  1.3398519400026E+00 -3.1953752765404E-01
   100  9.9000000000000E-01  1.3385688049790E+00 -3.0663441817879E-01
   101  1.0000000000000E+00  1.3359832817698E+00 -2.9181890353153E-01
   102  1.0100000000000E+00  1.3320908256898E+00 -2.7508696501437E-01
   103  1.0200000000000E+00  1.3268897288039E+00 -2.5644077738604E-01
   104  1.0300000000000E+00  1.3203811441606E+00 -2.3588879359942E-01
   105  1.0400000000000E+00  1.3125691016973E+00 -2.1344580855976E-01
   106  1.0500000000000E+00  1.3034605157184E+00 -1.8913300141413E-01
   107  1.0600000000000E+00  1.2930651838758E+00 -1.6297795595601E-01
   108  1.0700000000000E+00  1.2813957776099E+00 -1.3501465880325E-01
   109  1.0800000000000E+00  1.2684678240393E+00 -1.0528347508696E-01
   110  1.0900000000000E+00  1.2542996793146E+00 -7.3831101467095E-02
   111  1.1000000000000E+00  1.2389124934824E+00 -4.0710496373931E-02
   112  1.1100000000000E+00  1.2223301669342E+00 -5.9807874558727E-03
   113  1.1200000000000E+00  1.2045792985441E+00  3.0292843700062E-02
   114  1.1300000000000E+00  1.1856891256282E+00  6.8039299424623E-02
   115  1.1400000000000E+00  1.1656914558862E+00  1.0718172616314E-01
   116  1.1500000000000E+00  1.1446205915154E+00  1.4763769669068E-01
   117  1.1600000000000E+00  1.1225132457132E+00  1.8931941393782E-01
   118  1.1700000000000E+00  1.0994084518115E+00  2.3213393593463E-01
   119  1.1800000000000E+00  1.0753474653138E+00  2.7598342129605E-01
   120  1.1900000000000E+00  1.0503736591274E+00  3.2076539458972E-01
   121  1.2000000000000E+00  1.0245324123120E+00  3.6637303084565E-01
   122  1.2100000000000E+00  9.9787099268591E-01  4.1269545838888E-01
   123  1.2200000000000E+00  9.7043843365264E-01  4.5961807909933E-01
   124  1.2300000000000E+00  9.4228540563460E-01  5.0702290512944E-01
   125  1.2400000000000E+00  9.1346408251628E-01  5.5478891103986E-01
   126  1.2500000000000E+00  8.8402800351939E-01  6.0279240024613E-01
   127  1.2600000000000E+00  8.5403193094819E-01  6.5090738460640E-01
   128  1.2700000000000E+00  8.2353170425788E-01  6.9900597592107E-01
   129  1.2800000000000E+00  7.9258409091225E-01  7.4695878806071E-01
   130  1.2900000000000E+00  7.6124663450835E-01  7.9463534838917E-01
   131  1.3000000000000E+00  7.2957750065523E-01  8.4190451710394E-01
   132  1.3100000000000E+00  6.9763532110205E-01  8.8863491307655E-01
   133  1.3200000000000E+00  6.6547903661660E-01  9.3469534474231E-01
   134  1.3300000000000E+00  6.3316773911960E-01  9.7995524456076E-01
   135  1.3400000000000E+00  6.0076051358211E-01  1.0242851055460E+00
   136  1.3500000000000E+00  5.6831628019393E-01  1.0675569183510E+00
   137  1.3600000000000E+00  5.3589363730904E-01  1.1096446073799E+00
   138  1.3700000000000E+00  5.0355070567062E-01  1.1504244643999E+00
   139  1.3800000000000E+00  4.7134497441262E-01  1.1897755781273E+00
   140  1.3900000000000E+00  4.3933314932742E-01  1.2275802582736E+00