Ti    ONCVPSP-4.0.1  r_core=   2.80924   2.22468   1.98567
     22.0000     12.0000      230118    zatom,zion,pspd
     8       2   2     4   600     0    pspcod,pspxc,lmax,lloc,mmax,r2well
  5.99000000  2.50000000  0.00000000    rchrg fchrg qchrg
     2     2     2     0     0    nproj
     1     1           extension_switch
   0                         2.2209192458445E+00 -2.2946715793525E-01
     1  0.0000000000000E+00 -4.0572545323414E-12 -1.1221218398916E-11
     2  1.0000000000000E-02  5.0421575404113E-02  1.8945938630165E-02
     3  2.0000000000000E-02  1.0077138851811E-01  3.7846959424026E-02
     4  3.0000000000000E-02  1.5097781202915E-01  5.6658306435015E-02
     5  4.0000000000000E-02  2.0096948824753E-01  7.5335546841686E-02
     6  5.0000000000000E-02  2.5067546309079E-01  9.3834730877239E-02
     7  6.0000000000000E-02  3.0002531907769E-01  1.1211254980736E-01
     8  7.0000000000000E-02  3.4894930700685E-01  1.3012649131902E-01
     9  8.0000000000000E-02  3.9737847599880E-01  1.4783499169417E-01
    10  9.0000000000000E-02  4.4524480158533E-01  1.6519758415619E-01
    11  1.0000000000000E-01  4.9248131153606E-01  1.8217504279367E-01
    12  1.1000000000000E-01  5.3902220911907E-01  1.9872952148537E-01
    13  1.2000000000000E-01  5.8480299350039E-01  2.1482468727177E-01
    14  1.3000000000000E-01  6.2976057699602E-01  2.3042584764321E-01
    15  1.4000000000000E-01  6.7383339889972E-01  2.4550007124062E-01
    16  1.5000000000000E-01  7.1696153562045E-01  2.6001630149405E-01
    17  1.6000000000000E-01  7.5908680687459E-01  2.7394546275468E-01
    18  1.7000000000000E-01  8.0015287769032E-01  2.8726055850890E-01
    19  1.8000000000000E-01  8.4010535599404E-01  2.9993676129766E-01
    20  1.9000000000000E-01  8.7889188556262E-01  3.1195149400037E-01
    21  2.0000000000000E-01  9.1646223413909E-01  3.2328450218061E-01
    22  2.1000000000000E-01  9.5276837652415E-01  3.3391791722982E-01
    23  2.2000000000000E-01  9.8776457247129E-01  3.4383631008540E-01
    24  2.3000000000000E-01  1.0214074392288E+00  3.5302673534127E-01
    25  2.4000000000000E-01  1.0536560185880E+00  3.6147876561028E-01
    26  2.5000000000000E-01  1.0844718383145E+00  3.6918451604148E-01
    27  2.6000000000000E-01  1.1138189678539E+00  3.7613865893761E-01
    28  2.7000000000000E-01  1.1416640682230E+00  3.8233842846195E-01
    29  2.8000000000000E-01  1.1679764360138E+00  3.8778361546701E-01
    30  2.9000000000000E-01  1.1927280414534E+00  3.9247655252067E-01
    31  3.0000000000000E-01  1.2158935604828E+00  3.9642208924854E-01
    32  3.1000000000000E-01  1.2374504008343E+00  3.9962755815318E-01
    33  3.2000000000000E-01  1.2573787221028E+00  4.0210273111299E-01
    34  3.3000000000000E-01  1.2756614498263E+00  4.0385976680366E-01
    35  3.4000000000000E-01  1.2922842836057E+00  4.0491314932491E-01
    36  3.5000000000000E-01  1.3072356993126E+00  4.0527961835314E-01
    37  3.6000000000000E-01  1.3205069454479E+00  4.0497809117745E-01
    38  3.7000000000000E-01  1.3320920337336E+00  4.0402957701120E-01
    39  3.8000000000000E-01  1.3419877240323E+00  4.0245708400436E-01
    40  3.9000000000000E-01  1.3501935037057E+00  4.0028551941303E-01
    41  4.0000000000000E-01  1.3567115615399E+00  3.9754158341098E-01
    42  4.1000000000000E-01  1.3615467563746E+00  3.9425365705486E-01
    43  4.2000000000000E-01  1.3647065805925E+00  3.9045168493832E-01
    44  4.3000000000000E-01  1.3662011186332E+00  3.8616705309203E-01
    45  4.4000000000000E-01  1.3660430007103E+00  3.8143246270447E-01
    46  4.5000000000000E-01  1.3642473519216E+00  3.7628180025512E-01
    47  4.6000000000000E-01  1.3608317369510E+00  3.7075000466343E-01
    48  4.7000000000000E-01  1.3558161005730E+00  3.6487293206770E-01
    49  4.8000000000000E-01  1.3492227041760E+00  3.5868721885396E-01
    50  4.9000000000000E-01  1.3410760585315E+00  3.5223014355938E-01
    51  5.0000000000000E-01  1.3314028530415E+00  3.4553948827437E-01
    52  5.1000000000000E-01  1.3202318817010E+00  3.3865340016576E-01
    53  5.2000000000000E-01  1.3075939660219E+00  3.3161025373684E-01
    54  5.3000000000000E-01  1.2935218751613E+00  3.2444851443159E-01
    55  5.4000000000000E-01  1.2780502435088E+00  3.1720660417826E-01
    56  5.5000000000000E-01  1.2612154859806E+00  3.0992276945204E-01
    57  5.6000000000000E-01  1.2430557112764E+00  3.0263495241893E-01
    58  5.7000000000000E-01  1.2236106333501E+00  2.9538066570150E-01
    59  5.8000000000000E-01  1.2029214813472E+00  2.8819687128348E-01
    60  5.9000000000000E-01  1.1810309082578E+00  2.8111986404393E-01
    61  6.0000000000000E-01  1.1579828985334E+00  2.7418516038203E-01
    62  6.1000000000000E-01  1.1338226749097E+00  2.6742739236285E-01
    63  6.2000000000000E-01  1.1085966046736E+00  2.6088020777996E-01
    64  6.3000000000000E-01  1.0823521056095E+00  2.5457617649561E-01
    65  6.4000000000000E-01  1.0551375518482E+00  2.4854670338107E-01
    66  6.5000000000000E-01  1.0270021798418E+00  2.4282194814075E-01
    67  6.6000000000000E-01  9.9799599467329E-01  2.3743075226259E-01
    68  6.7000000000000E-01  9.6816967690600E-01  2.3240057329558E-01
    69  6.8000000000000E-01  9.3757449016695E-01  2.2775742661186E-01
    70  6.9000000000000E-01  9.0626218964860E-01  2.2352583476739E-01
    71  7.0000000000000E-01  8.7428493170393E-01  2.1972878453071E-01
    72  7.1000000000000E-01  8.4169518469898E-01  2.1638769160488E-01
    73  7.2000000000000E-01  8.0854564127619E-01  2.1352237302318E-01
    74  7.3000000000000E-01  7.7488913217056E-01  2.1115102715479E-01
    75  7.4000000000000E-01  7.4077854170947E-01  2.0929022121320E-01
    76  7.5000000000000E-01  7.0626672511518E-01  2.0795488611688E-01
    77  7.6000000000000E-01  6.7140642771745E-01  2.0715831851021E-01
    78  7.7000000000000E-01  6.3625020617206E-01  2.0691218971185E-01
    79  7.8000000000000E-01  6.0085035176915E-01  2.0722656131912E-01
    80  7.9000000000000E-01  5.6525881590396E-01  2.0810990715937E-01
    81  8.0000000000000E-01  5.2952713777094E-01  2.0956914124472E-01
    82  8.1000000000000E-01  4.9370637433109E-01  2.1160965135337E-01
    83  8.2000000000000E-01  4.5784703259171E-01  2.1423533783053E-01
    84  8.3000000000000E-01  4.2199900422681E-01  2.1744865717458E-01
    85  8.4000000000000E-01  3.8621150255685E-01  2.2125066994894E-01
    86  8.5000000000000E-01  3.5053300189645E-01  2.2564109253901E-01
    87  8.6000000000000E-01  3.1501117926988E-01  2.3061835225474E-01
    88  8.7000000000000E-01  2.7969285848548E-01  2.3617964526449E-01
    89  8.8000000000000E-01  2.4462395655245E-01  2.4232099683431E-01
    90  8.9000000000000E-01  2.0984943241596E-01  2.4903732333873E-01
    91  9.0000000000000E-01  1.7541323798028E-01  2.5632249550478E-01
    92  9.1000000000000E-01  1.4135827138361E-01  2.6416940235041E-01
    93  9.2000000000000E-01  1.0772633248348E-01  2.7257001528187E-01
    94  9.3000000000000E-01  7.4558080506999E-02  2.8151545182073E-01
    95  9.4000000000000E-01  4.1892993817040E-02  2.9099603844295E-01
    96  9.5000000000000E-01  9.7693317427071E-03  3.0100137202597E-01
    97  9.6000000000000E-01 -2.1775901579606E-02  3.1152037941789E-01
    98  9.7000000000000E-01 -5.2706991409103E-02  3.2254137466488E-01
    99  9.8000000000000E-01 -8.2989544702383E-02  3.3405211345736E-01
   100  9.9000000000000E-01 -1.1259052056854E-01  3.4603984438407E-01
   101  1.0000000000000E+00 -1.4147825893071E-01  3.5849135661494E-01
   102  1.0100000000000E+00 -1.6962250744513E-01  3.7139302366760E-01
   103  1.0200000000000E+00 -1.9699444672621E-01  3.8473084295015E-01
   104  1.0300000000000E+00 -2.2356671392247E-01  3.9849047081239E-01
   105  1.0400000000000E+00 -2.4931342468445E-01  4.1265725288000E-01
   106  1.0500000000000E+00 -2.7421019356080E-01  4.2721624949034E-01
   107  1.0600000000000E+00 -2.9823415285373E-01  4.4215225609477E-01
   108  1.0700000000000E+00 -3.2136396995945E-01  4.5744981853970E-01
   109  1.0800000000000E+00 -3.4357986321281E-01  4.7309324318767E-01
   110  1.0900000000000E+00 -3.6486361624926E-01  4.8906660188931E-01
   111  1.1000000000000E+00 -3.8519859089024E-01  5.0535373186708E-01
   112  1.1100000000000E+00 -4.0456973855118E-01  5.2193823062282E-01
   113  1.1200000000000E+00 -4.2296361016426E-01  5.3880344603088E-01
   114  1.1300000000000E+00 -4.4036836460042E-01  5.5593246182895E-01
   115  1.1400000000000E+00 -4.5677377556835E-01  5.7330807876814E-01
   116  1.1500000000000E+00 -4.7217123696045E-01  5.9091279173141E-01
   117  1.1600000000000E+00 -4.8655376660896E-01  6.0872876317676E-01
   118  1.1700000000000E+00 -4.9991600840828E-01  6.2673779330608E-01
   119  1.1800000000000E+00 -5.1225423275303E-01  6.4492128740344E-01
   120  1.1900000000000E+00 -5.2356633523496E-01  6.6326022082716E-01
   121  1.2000000000000E+00 -5.3385183353583E-01  6.8173510217734E-01
   122  1.2100000000000E+00 -5.4311186244814E-01  7.0032593519552E-01
   123  1.2200000000000E+00 -5.5134916695041E-01  7.1901217998416E-01
   124  1.2300000000000E+00 -5.5856809325961E-01  7.3777271416183E-01
   125  1.2400000000000E+00 -5.6477457777960E-01  7.5658579459361E-01
   126  1.2500000000000E+00 -5.6997613386136E-01  7.7542902035669E-01
   127  1.2600000000000E+00 -5.7418183628897E-01  7.9427929761670E-01
   128  1.2700000000000E+00 -5.7740230340334E-01  8.1311280710209E-01
   129  1.2800000000000E+00 -5.7964967677580E-01  8.3190497487077E-01
   130  1.2900000000000E+00 -5.8093759834336E-01  8.5063044706581E-01
   131  1.3000000000000E+00 -5.8128118491918E-01  8.6926306935471E-01
   132  1.3100000000000E+00 -5.8069699999352E-01  8.8777587173986E-01
   133  1.3200000000000E+00 -5.7920302274383E-01  9.0614105941622E-01
   134  1.3300000000000E+00 -5.7681861417644E-01  9.2433001033556E-01
   135  1.3400000000000E+00 -5.7356448032729E-01  9.4231328011594E-01
   136  1.3500000000000E+00 -5.6946263245516E-01  9.6006061490883E-01
   137  1.3600000000000E+00 -5.6453634416740E-01  9.7754097280648E-01
   138  1.3700000000000E+00 -5.5881010542607E-01  9.9472255433720E-01
   139  1.3800000000000E+00 -5.5230957339089E-01  1.0115728425574E+00
   140  1.3900000000000E+00 -5.4506152006460E-01  1.0280586532061E+00
   141  1.4000000000000E+00 -5.3709377671689E-01  1.0441461953416E+00
   142  1.4100000000000E+00 -5.2843517507361E-01  1.0598011428285E+00
   143  1.4200000000000E+00 -5.1911548526970E-01  1.0749887169903E+00
   144  1.4300000000000E+00 -5.0916535057671E-01  1.0896737806870E+00
   145  1.4400000000000E+00 -4.9861621892822E-01  1.1038209440160E+00
   146  1.4500000000000E+00 -4.8750027128002E-01  1.1173946817738E+00
   147  1.4600000000000E+00 -4.7585034685565E-01  1.1303594627540E+00
   148  1.4700000000000E+00 -4.6369986534166E-01  1.1426798908885E+00
   149  1.4800000000000E+00 -4.5108274611155E-01  1.1543208581760E+00
   150  1.4900000000000E+00 -4.3803332457175E-01  1.1652477092712E+00
   151  1.5000000000000E+00 -4.2458626573730E-01  1.1754264175446E+00
   152  1.5100000000000E+00 -4.1077647515982E-01  1.1848237723505E+00
   153  1.5200000000000E+00 -3.9663900734438E-01  1.1934075771785E+00
   154  1.5300000000000E+00 -3.8220897180646E-01  1.2011468582928E+00
   155  1.5400000000000E+00 -3.6752143693371E-01  1.2080120834034E+00
   156  1.5500000000000E+00 -3.5261133183111E-01  1.2139753898461E+00
   157  1.5600000000000E+00 -3.3751334634106E-01  1.2190108216902E+00
   158  1.5700000000000E+00 -3.2226182944211E-01  1.2230945751320E+00
   159  1.5800000000000E+00 -3.0689068624241E-01  1.2262052514774E+00
   160  1.5900000000000E+00 -2.9143327379434E-01  1.2283241169667E+00
   161  1.6000000000000E+00 -2.7592229596769E-01  1.2294353686414E+00
   162  1.6100000000000E+00 -2.6038969761885E-01  1.2295264055016E+00
   163  1.6200000000000E+00 -2.4486655834917E-01  1.2285881036543E+00
   164  1.6300000000000E+00 -2.2938298606362E-01  1.2266150951960E+00
   165  1.6400000000000E+00 -2.1396802941704E-01  1.2236058524309E+00
   166  1.6500000000000E+00 -1.9864978584186E-01  1.2195608236482E+00
   167  1.6600000000000E+00 -1.8345555000989E-01  1.2144805264585E+00
   168  1.6700000000000E+00 -1.6841180090881E-01  1.2083655329499E+00
   169  1.6800000000000E+00 -1.5354417195263E-01  1.2012166389472E+00
   170  1.6900000000000E+00 -1.3887742078334E-01  1.1930350337340E+00
   171  1.7000000000000E+00 -1.2443539900611E-01  1.1838224687772E+00
   172  1.7100000000000E+00 -1.1024102210077E-01  1.1735814242183E+00
   173  1.7200000000000E+00 -9.6316239721054E-02  1.1623152722336E+00
   174  1.7300000000000E+00 -8.2682006600287E-02  1.1500284363020E+00
   175  1.7400000000000E+00 -6.9358254280858E-02  1.1367265454336E+00
   176  1.7500000000000E+00 -5.6363863882861E-02  1.1224165824329E+00
   177  1.7600000000000E+00 -4.3716640123502E-02  1.1071070252964E+00
   178  1.7700000000000E+00 -3.1433286794329E-02  1.0908079808733E+00
   179  1.7800000000000E+00 -1.9529383897436E-02  1.0735313099556E+00
   180  1.7900000000000E+00 -8.0193666347276E-03  1.0552907430019E+00
   181  1.8000000000000E+00  3.0834935637753E-03  1.0361019857458E+00
   182  1.8100000000000E+00  1.3767105795800E-02  1.0159828139863E+00
   183  1.8200000000000E+00  2.4020574060346E-02  9.9495315691208E-01
   184  1.8300000000000E+00  3.3834209093520E-02  9.7303516836915E-01
   185  1.8400000000000E+00  4.3199537523455E-02  9.5025328553905E-01
   186  1.8500000000000E+00  5.2109308214063E-02  9.2663427456066E-01
   187  1.8600000000000E+00  6.0557495681085E-02  9.0220726269402E-01
   188  1.8700000000000E+00  6.8539300478364E-02  8.7700375669380E-01
   189  1.8800000000000E+00  7.6051146467370E-02  8.5105764713138E-01
   190  1.8900000000000E+00  8.3090674898628E-02  8.2440519847750E-01
   191  1.9000000000000E+00  8.9656735249663E-02  7.9708502483152E-01
   192  1.9100000000000E+00  9.5749372780845E-02  7.6913805126008E-01
   193  1.9200000000000E+00  1.0136981278703E-01  7.4060746078309E-01
   194  1.9300000000000E+00  1.0652044153999E-01  7.1153862712223E-01
   195  1.9400000000000E+00  1.1120478393374E-01  6.8197903340348E-01
   196  1.9500000000000E+00  1.1542747786184E-01  6.5197817708089E-01
   197  1.9600000000000E+00  1.1919424537309E-01  6.2158746142425E-01
   198  1.9700000000000E+00  1.2251186066859E-01  5.9086007398703E-01
   199  1.9800000000000E+00  1.2538811501989E-01  5.5985085254139E-01
   200  1.9900000000000E+00  1.2783177870436E-01  5.2861613903950E-01
   201  2.0000000000000E+00  1.2985256006969E-01  4.9721362222575E-01
   202  2.0100000000000E+00  1.3146106185466E-01  4.6570216958934E-01
   203  2.0200000000000E+00  1.3266873490821E-01  4.3414164940824E-01
   204  2.0300000000000E+00  1.3348782946305E-01  4.0259274369364E-01
   205  2.0400000000000E+00  1.3393134413265E-01  3.7111675289564E-01
   206  2.0500000000000E+00  1.3401297281395E-01  3.3977539328354E-01
   207  2.0600000000000E+00  1.3374704968893E-01  3.0863058795752E-01
   208  2.0700000000000E+00  1.3314849252920E-01  2.7774425248907E-01
   209  2.0800000000000E+00  1.3223274451712E-01  2.4717807622350E-01
   210  2.0900000000000E+00  1.3101571480583E-01  2.1699330030810E-01
   211  2.1000000000000E+00  1.2951371804731E-01  1.8725049353366E-01
   212  2.1100000000000E+00  1.2774341312492E-01  1.5800932709885E-01
   213  2.1200000000000E+00  1.2572174133091E-01  1.2932834941854E-01
   214  2.1300000000000E+00  1.2346586423383E-01  1.0126476210693E-01
   215  2.1400000000000E+00  1.2099310148307E-01  7.3874198267534E-02
   216  2.1500000000000E+00  1.1832086879929E-01  4.7210504220779E-02
   217  2.1600000000000E+00  1.1546661639966E-01  2.1325525788743E-02
   218  2.1700000000000E+00  1.1244776810519E-01 -3.7310997566847E-03
   219  2.1800000000000E+00  1.0928166137547E-01 -2.7912144999060E-02
   220  2.1900000000000E+00  1.0598548851208E-01 -5.1172985875050E-02
   221  2.2000000000000E+00  1.0257623926746E-01 -7.3471786338713E-02
   222  2.2100000000000E+00  9.9070645089166E-02 -9.4769673202765E-02
   223  2.2200000000000E+00  9.5485125222505E-02 -1.1503090021078E-01
   224  2.2300000000000E+00  9.1835734886048E-02 -1.3422300043963E-01
   225  2.2400000000000E+00  8.8138115725442E-02 -1.5231692618227E-01
   226  2.2500000000000E+00  8.4407448739176E-02 -1.6928717552348E-01
   227  2.2600000000000E+00  8.0658409858863E-02 -1.8511190487922E-01
   228  2.2700000000000E+00  7.6905128354251E-02 -1.9977302683424E-01
   229  2.2800000000000E+00  7.3161148220557E-02 -2.1325629267759E-01
   230  2.2900000000000E+00  6.9439392689366E-02 -2.2555135911809E-01
   231  2.3000000000000E+00  6.5752131990130E-02 -2.3665183873287E-01
   232  2.3100000000000E+00  6.2110954475673E-02 -2.4655533377012E-01
   233  2.3200000000000E+00  5.8526741206780E-02 -2.5526345301774E-01
   234  2.3300000000000E+00  5.5009644074518E-02 -2.6278181152969E-01
   235  2.3400000000000E+00  5.1569067520354E-02 -2.6912001309229E-01
   236  2.3500000000000E+00  4.8213653903482E-02 -2.7429161536437E-01
   237  2.3600000000000E+00  4.4951272537767E-02 -2.7831407775517E-01
   238  2.3700000000000E+00  4.1789012408256E-02 -2.8120869216286E-01
   239  2.3800000000000E+00  3.8733178559567E-02 -2.8300049678073E-01
   240  2.3900000000000E+00  3.5789292130686E-02 -2.8371817326222E-01
   241  2.4000000000000E+00  3.2962093990000E-02 -2.8339392763333E-01
   242  2.4100000000000E+00  3.0255551908117E-02 -2.8206335541638E-01
   243  2.4200000000000E+00  2.7672871195985E-02 -2.7976529147665E-01
   244  2.4300000000000E+00  2.5216508707319E-02 -2.7654164523499E-01
   245  2.4400000000000E+00  2.2888190094653E-02 -2.7243722193325E-01
   246  2.4500000000000E+00  2.0688930196908E-02 -2.6749953069247E-01
   247  2.4600000000000E+00  1.8619056413023E-02 -2.6177858020932E-01
   248  2.4700000000000E+00  1.6678234905135E-02 -2.5532666298561E-01
   249  2.4800000000000E+00  1.4865499465883E-02 -2.4819812902562E-01
   250  2.4900000000000E+00  1.3179282866616E-02 -2.4044915001503E-01
   251  2.5000000000000E+00  1.1617450491502E-02 -2.3213747504578E-01
   252  2.5100000000000E+00  1.0177336057273E-02 -2.2332217897397E-01
   253  2.5200000000000E+00  8.8557792047983E-03 -2.1406340455590E-01
   254  2.5300000000000E+00  7.6491647390835E-03 -2.0442209954591E-01
   255  2.5400000000000E+00  6.5534632922107E-03 -1.9445974994761E-01
   256  2.5500000000000E+00  5.5642731736202E-03 -1.8423811065110E-01
   257  2.5600000000000E+00  4.6768631675135E-03 -1.7381893470216E-01
   258  2.5700000000000E+00  3.8862160368032E-03 -1.6326370245011E-01
   259  2.5800000000000E+00  3.1870724868017E-03 -1.5263335184210E-01
   260  2.5900000000000E+00  2.5739753438260E-03 -1.4198801111297E-01
   261  2.6000000000000E+00  2.0413137030150E-03 -1.3138673512452E-01
   262  2.6100000000000E+00  1.5833667996988E-03 -1.2088724659644E-01
   263  2.6200000000000E+00  1.1943473595561E-03 -1.1054568243207E-01
   264  2.6300000000000E+00  8.6844423650853E-04 -1.0041635320005E-01
   265  2.6400000000000E+00  5.9986396754814E-04 -9.0551501005159E-02
   266  2.6500000000000E+00  3.8287129330474E-04 -8.1001060972835E-02
   267  2.6600000000000E+00  2.1182778790718E-04 -7.1812473529508E-02
   268  2.6700000000000E+00  8.1229920227477E-05 -6.3030532761397E-02
   269  2.6800000000000E+00 -1.4250492608702E-05 -5.4697587989108E-02
   270  2.6900000000000E+00 -7.9737450020215E-05 -4.6852761332893E-02
   271  2.7000000000000E+00 -1.2012453076134E-04 -3.9531196117059E-02
   272  2.7100000000000E+00 -1.4004338685850E-04 -3.2764647617043E-02
   273  2.7200000000000E+00 -1.4383699734091E-04 -2.6581459485697E-02
   274  2.7300000000000E+00 -1.3553555981828E-04 -2.1006327010187E-02
   275  2.7400000000000E+00 -1.1883527298524E-04 -1.6060234610081E-02
   276  2.7500000000000E+00 -9.7079986651265E-05 -1.1760361341514E-02
   277  2.7600000000000E+00 -7.3248950648143E-05 -8.1202829947883E-03
   278  2.7700000000000E+00 -4.9952224394838E-05 -5.1505725279122E-03
   279  2.7800000000000E+00 -2.9239887331499E-05 -2.8434550081986E-03
   280  2.7900000000000E+00 -1.3193437692096E-05 -1.2232646794839E-03
   281  2.8000000000000E+00 -3.6299269452973E-06 -3.2235199677584E-04
   282  2.8100000000000E+00  1.2884095496288E-07  1.1092063293231E-05
   283  2.8200000000000E+00  4.0461705143509E-07  3.4158484203492E-05
   284  2.83 -0. -0.
   285  2.84 -0. -0.
   286  2.85  0.  0.
   287  2.86  0.  0.
   288  2.87 -0. -0.
   289  2.88  0.  0.
   290  2.89  0.  0.
   291  2.90  0.  0.
   292  2.91  0.  0.
   293  2.92  0.  0.
   294  2.93  0.  0.
   295  2.94  0.  0.
   296  2.95  0.  0.
   297  2.96  0.  0.
   298  2.97  0.  0.
   299  2.98  0.  0.
   300  2.99  0.  0.
   301  3.00  0.  0.
   302  3.01  0.  0.
   303  3.02  0.  0.
   304  3.03  0.  0.
   305  3.04  0.  0.
   306  3.05  0.  0.
   307  3.06  0.  0.
   308  3.07  0.  0.
   309  3.08  0.  0.
   310  3.09  0.  0.
   311  3.10  0.  0.
   312  3.11  0.  0.
   313  3.12  0.  0.
   314  3.13  0.  0.
   315  3.14  0.  0.
   316  3.15  0.  0.
   317  3.16  0.  0.
   318  3.17  0.  0.
   319  3.18  0.  0.
   320  3.19  0.  0.
   321  3.20  0.  0.
   322  3.21  0.  0.
   323  3.22  0.  0.
   324  3.23  0.  0.
   325  3.24  0.  0.
   326  3.25  0.  0.
   327  3.26  0.  0.
   328  3.27  0.  0.
   329  3.28  0.  0.
   330  3.29  0.  0.
   331  3.30  0.  0.
   332  3.31  0.  0.
   333  3.32  0.  0.
   334  3.33  0.  0.
   335  3.34  0.  0.
   336  3.35  0.  0.
   337  3.36  0.  0.
   338  3.37  0.  0.
   339  3.38  0.  0.
   340  3.39  0.  0.
   341  3.40  0.  0.
   342  3.41  0.  0.
   343  3.42  0.  0.
   344  3.43  0.  0.
   345  3.44  0.  0.
   346  3.45  0.  0.
   347  3.46  0.  0.
   348  3.47  0.  0.
   349  3.48  0.  0.
   350  3.49  0.  0.
   351  3.50  0.  0.
   352  3.51  0.  0.
   353  3.52  0.  0.
   354  3.53  0.  0.
   355  3.54  0.  0.
   356  3.55  0.  0.
   357  3.56  0.  0.
   358  3.57  0.  0.
   359  3.58  0.  0.
   360  3.59  0.  0.
   361  3.60  0.  0.
   362  3.61  0.  0.
   363  3.62  0.  0.
   364  3.63  0.  0.
   365  3.64  0.  0.
   366  3.65  0.  0.
   367  3.66  0.  0.
   368  3.67  0.  0.
   369  3.68  0.  0.
   370  3.69  0.  0.
   371  3.70  0.  0.
   372  3.71  0.  0.
   373  3.72  0.  0.
   374  3.73  0.  0.
   375  3.74  0.  0.
   376  3.75  0.  0.
   377  3.76  0.  0.
   378  3.77  0.  0.
   379  3.78  0.  0.
   380  3.79  0.  0.
   381  3.80  0.  0.
   382  3.81  0.  0.
   383  3.82  0.  0.
   384  3.83  0.  0.
   385  3.84  0.  0.
   386  3.85  0.  0.
   387  3.86  0.  0.
   388  3.87  0.  0.
   389  3.88  0.  0.
   390  3.89  0.  0.
   391  3.90  0.  0.
   392  3.91  0.  0.
   393  3.92  0.  0.
   394  3.93  0.  0.
   395  3.94  0.  0.
   396  3.95  0.  0.
   397  3.96  0.  0.
   398  3.97  0.  0.
   399  3.98  0.  0.
   400  3.99  0.  0.
   401  4.00  0.  0.
   402  4.01  0.  0.
   403  4.02  0.  0.
   404  4.03  0.  0.
   405  4.04  0.  0.
   406  4.05  0.  0.
   407  4.06  0.  0.
   408  4.07  0.  0.
   409  4.08  0.  0.
   410  4.09  0.  0.
   411  4.10  0.  0.
   412  4.11  0.  0.
   413  4.12  0.  0.
   414  4.13  0.  0.
   415  4.14  0.  0.
   416  4.15  0.  0.
   417  4.16  0.  0.
   418  4.17  0.  0.
   419  4.18  0.  0.
   420  4.19  0.  0.
   421  4.20  0.  0.
   422  4.21  0.  0.
   423  4.22  0.  0.
   424  4.23  0.  0.
   425  4.24  0.  0.
   426  4.25  0.  0.
   427  4.26  0.  0.
   428  4.27  0.  0.
   429  4.28  0.  0.
   430  4.29  0.  0.
   431  4.30  0.  0.
   432  4.31  0.  0.
   433  4.32  0.  0.
   434  4.33  0.  0.
   435  4.34  0.  0.
   436  4.35  0.  0.
   437  4.36  0.  0.
   438  4.37  0.  0.
   439  4.38  0.  0.
   440  4.39  0.  0.
   441  4.40  0.  0.
   442  4.41  0.  0.
   443  4.42  0.  0.
   444  4.43  0.  0.
   445  4.44  0.  0.
   446  4.45  0.  0.
   447  4.46  0.  0.
   448  4.47  0.  0.
   449  4.48  0.  0.
   450  4.49  0.  0.
   451  4.50  0.  0.
   452  4.51  0.  0.
   453  4.52  0.  0.
   454  4.53  0.  0.
   455  4.54  0.  0.
   456  4.55  0.  0.
   457  4.56  0.  0.
   458  4.57  0.  0.
   459  4.58  0.  0.
   460  4.59  0.  0.
   461  4.60  0.  0.
   462  4.61  0.  0.
   463  4.62  0.  0.
   464  4.63  0.  0.
   465  4.64  0.  0.
   466  4.65  0.  0.
   467  4.66  0.  0.
   468  4.67  0.  0.
   469  4.68  0.  0.
   470  4.69  0.  0.
   471  4.70  0.  0.
   472  4.71  0.  0.
   473  4.72  0.  0.
   474  4.73  0.  0.
   475  4.74  0.  0.
   476  4.75  0.  0.
   477  4.76  0.  0.
   478  4.77  0.  0.
   479  4.78  0.  0.
   480  4.79  0.  0.
   481  4.80  0.  0.
   482  4.81  0.  0.
   483  4.82  0.  0.
   484  4.83  0.  0.
   485  4.84  0.  0.
   486  4.85  0.  0.
   487  4.86  0.  0.
   488  4.87  0.  0.
   489  4.88  0.  0.
   490  4.89  0.  0.
   491  4.90  0.  0.
   492  4.91  0.  0.
   493  4.92  0.  0.
   494  4.93  0.  0.
   495  4.94  0.  0.
   496  4.95  0.  0.
   497  4.96  0.  0.
   498  4.97  0.  0.
   499  4.98  0.  0.
   500  4.99  0.  0.
   501  5.00  0.  0.
   502  5.01  0.  0.
   503  5.02  0.  0.
   504  5.03  0.  0.
   505  5.04  0.  0.
   506  5.05  0.  0.
   507  5.06  0.  0.
   508  5.07  0.  0.
   509  5.08  0.  0.
   510  5.09  0.  0.
   511  5.10  0.  0.
   512  5.11  0.  0.
   513  5.12  0.  0.
   514  5.13  0.  0.
   515  5.14  0.  0.
   516  5.15  0.  0.
   517  5.16  0.  0.
   518  5.17  0.  0.
   519  5.18  0.  0.
   520  5.19  0.  0.
   521  5.20  0.  0.
   522  5.21  0.  0.
   523  5.22  0.  0.
   524  5.23  0.  0.
   525  5.24  0.  0.
   526  5.25  0.  0.
   527  5.26  0.  0.
   528  5.27  0.  0.
   529  5.28  0.  0.
   530  5.29  0.  0.
   531  5.30  0.  0.
   532  5.31  0.  0.
   533  5.32  0.  0.
   534  5.33  0.  0.
   535  5.34  0.  0.
   536  5.35  0.  0.
   537  5.36  0.  0.
   538  5.37  0.  0.
   539  5.38  0.  0.
   540  5.39  0.  0.
   541  5.40  0.  0.
   542  5.41  0.  0.
   543  5.42  0.  0.
   544  5.43  0.  0.
   545  5.44  0.  0.
   546  5.45  0.  0.
   547  5.46  0.  0.
   548  5.47  0.  0.
   549  5.48  0.  0.
   550  5.49  0.  0.
   551  5.50  0.  0.
   552  5.51  0.  0.
   553  5.52  0.  0.
   554  5.53  0.  0.
   555  5.54  0.  0.
   556  5.55  0.  0.
   557  5.56  0.  0.
   558  5.57  0.  0.
   559  5.58  0.  0.
   560  5.59  0.  0.
   561  5.60  0.  0.
   562  5.61  0.  0.
   563  5.62  0.  0.
   564  5.63  0.  0.
   565  5.64  0.  0.
   566  5.65  0.  0.
   567  5.66  0.  0.
   568  5.67  0.  0.
   569  5.68  0.  0.
   570  5.69  0.  0.
   571  5.70  0.  0.
   572  5.71  0.  0.
   573  5.72  0.  0.
   574  5.73  0.  0.
   575  5.74  0.  0.
   576  5.75  0.  0.
   577  5.76  0.  0.
   578  5.77  0.  0.
   579  5.78  0.  0.
   580  5.79  0.  0.
   581  5.80  0.  0.
   582  5.81  0.  0.
   583  5.82  0.  0.
   584  5.83  0.  0.
   585  5.84  0.  0.
   586  5.85  0.  0.
   587  5.86  0.  0.
   588  5.87  0.  0.
   589  5.88  0.  0.
   590  5.89  0.  0.
   591  5.90  0.  0.
   592  5.91  0.  0.
   593  5.92  0.  0.
   594  5.93  0.  0.
   595  5.94  0.  0.
   596  5.95  0.  0.
   597  5.96  0.  0.
   598  5.97  0.  0.
   599  5.98  0.  0.
   600  5.99  0.  0.
   1                        -1.1820176984080E+00 -2.3826187991127E-01
     1  0.0000000000000E+00 -5.1633409353657E-11  2.3089611472793E-10
     2  1.0000000000000E-02  4.3635381424231E-04 -6.8507960205183E-05
     3  2.0000000000000E-02  1.7452430734661E-03 -2.7525662288492E-04
     4  3.0000000000000E-02  3.9261481248569E-03 -6.2390594970060E-04
     5  4.0000000000000E-02  6.9781925668211E-03 -1.1205080521485E-03
     6  5.0000000000000E-02  1.0900127874461E-02 -1.7734358866854E-03
     7  6.0000000000000E-02  1.5690312066174E-02 -2.5932842882317E-03
     8  7.0000000000000E-02  2.1346682600593E-02 -3.5927441937331E-03
     9  8.0000000000000E-02  2.7866723744700E-02 -4.7864511383565E-03
    10  9.0000000000000E-02  3.5247428703805E-02 -6.1908093289606E-03
    11  1.0000000000000E-01  4.3485256851700E-02 -7.8237928102316E-03
    12  1.1000000000000E-01  5.2576086444466E-02 -9.7047254372257E-03
    13  1.2000000000000E-01  6.2515163243647E-02 -1.1854041551837E-02
    14  1.3000000000000E-01  7.3297045513628E-02 -1.4293029428574E-02
    15  1.4000000000000E-01  8.4915545893643E-02 -1.7043559705693E-02
    16  1.5000000000000E-01  9.7363670676782E-02 -2.0127801149606E-02
    17  1.6000000000000E-01  1.1063355705625E-01 -2.3567926213071E-02
    18  1.7000000000000E-01  1.2471640892296E-01 -2.7385808939129E-02
    19  1.8000000000000E-01  1.3960243181784E-01 -3.1602717833680E-02
    20  1.9000000000000E-01  1.5528076765742E-01 -3.6239006377533E-02
    21  2.0000000000000E-01  1.7173942986123E-01 -4.1313803875817E-02
    22  2.1000000000000E-01  1.8896523951572E-01 -4.6844709345864E-02
    23  2.2000000000000E-01  2.0694376320990E-01 -5.2847491126497E-02
    24  2.3000000000000E-01  2.2565925317459E-01 -5.9335794850915E-02
    25  2.4000000000000E-01  2.4509459034866E-01 -6.6320862362374E-02
    26  2.5000000000000E-01  2.6523123098249E-01 -7.3811264068407E-02
    27  2.6000000000000E-01  2.8604915737184E-01 -8.1812647124622E-02
    28  2.7000000000000E-01  3.0752683329301E-01 -9.0327501715155E-02
    29  2.8000000000000E-01  3.2964116468458E-01 -9.9354947554598E-02
    30  2.9000000000000E-01  3.5236746609066E-01 -1.0889054257611E-01
    31  3.0000000000000E-01  3.7567943334711E-01 -1.1892611559526E-01
    32  3.1000000000000E-01  3.9954912295469E-01 -1.2944962454895E-01
    33  3.2000000000000E-01  4.2394693854259E-01 -1.4044504170621E-01
    34  3.3000000000000E-01  4.4884162478252E-01 -1.5189226703449E-01
    35  3.4000000000000E-01  4.7420026906717E-01 -1.6376707068202E-01
    36  3.5000000000000E-01  4.9998831121876E-01 -1.7604106530724E-01
    37  3.6000000000000E-01  5.2616956144292E-01 -1.8868170875139E-01
    38  3.7000000000000E-01  5.5270622669162E-01 -2.0165233731187E-01
    39  3.8000000000000E-01  5.7955894554532E-01 -2.1491222963461E-01
    40  3.9000000000000E-01  6.0668683167136E-01 -2.2841670100530E-01
    41  4.0000000000000E-01  6.3404752586082E-01 -2.4211722758283E-01
    42  4.1000000000000E-01  6.6159725659217E-01 -2.5596159988810E-01
    43  4.2000000000000E-01  6.8929090901586E-01 -2.6989410463621E-01