V     ONCVPSP-4.0.1  r_core=   1.65519   1.91073   1.91073
     23.0000     13.0000      230118    zatom,zion,pspd
     8       2   2     4   600     0    pspcod,pspxc,lmax,lloc,mmax,r2well
  5.99000000  5.00000000  0.00000000    rchrg fchrg qchrg
     2     2     2     0     0    nproj
     1     1           extension_switch
   0                         3.8039338391314E+00 -3.6876046709940E-01
     1  0.0000000000000E+00 -4.5947690097137E-12 -3.1340480211028E-10
     2  1.0000000000000E-02  6.9041995634949E-02  6.0854568118669E-02
     3  2.0000000000000E-02  1.3794392100107E-01  1.2140222157818E-01
     4  3.0000000000000E-02  2.0656605024326E-01  1.8133765777259E-01
     5  4.0000000000000E-02  2.7476934549196E-01  2.4035878798446E-01
     6  5.0000000000000E-02  3.4241579875216E-01  2.9816831886460E-01
     7  6.0000000000000E-02  4.0936877127113E-01  3.5447530357808E-01
     8  7.0000000000000E-02  4.7549332954971E-01  4.0899665287580E-01
     9  8.0000000000000E-02  5.4065657716649E-01  4.6145859666466E-01
    10  9.0000000000000E-02  6.0472798159033E-01  5.1159808703523E-01
    11  1.0000000000000E-01  6.6757969516324E-01  5.5916413416225E-01
    12  1.1000000000000E-01  7.2908686944463E-01  6.0391906701409E-01
    13  1.2000000000000E-01  7.8912796211705E-01  6.4563971138957E-01
    14  1.3000000000000E-01  8.4758503566516E-01  6.8411847843794E-01
    15  1.4000000000000E-01  9.0434404705218E-01  7.1916435750464E-01
    16  1.5000000000000E-01  9.5929512763233E-01  7.5060380787661E-01
    17  1.6000000000000E-01  1.0123328525535E+00  7.7828154476825E-01
    18  1.7000000000000E-01  1.0633564989225E+00  8.0206121568700E-01
    19  1.8000000000000E-01  1.1122702920236E+00  8.2182596413881E-01
    20  1.9000000000000E-01  1.1589836389044E+00  8.3747887846981E-01
    21  2.0000000000000E-01  1.2034113486628E+00  8.4894332448628E-01
    22  2.1000000000000E-01  1.2454738387986E+00  8.5616316134042E-01
    23  2.2000000000000E-01  1.2850973270163E+00  8.5910284100956E-01
    24  2.3000000000000E-01  1.3222140078978E+00  8.5774739252198E-01
    25  2.4000000000000E-01  1.3567622138942E+00  8.5210229288770E-01
    26  2.5000000000000E-01  1.3886865601204E+00  8.4219322747011E-01
    27  2.6000000000000E-01  1.4179380724709E+00  8.2806574327699E-01
    28  2.7000000000000E-01  1.4444742986149E+00  8.0978479935244E-01
    29  2.8000000000000E-01  1.4682594014696E+00  7.8743421910738E-01
    30  2.9000000000000E-01  1.4892642347903E+00  7.6111605003123E-01
    31  3.0000000000000E-01  1.5074664005662E+00  7.3094983677591E-01
    32  3.1000000000000E-01  1.5228502879516E+00  6.9707181409152E-01
    33  3.2000000000000E-01  1.5354070935182E+00  6.5963402651692E-01
    34  3.3000000000000E-01  1.5451348226586E+00  6.1880338208667E-01
    35  3.4000000000000E-01  1.5520382720297E+00  5.7476064760245E-01
    36  3.5000000000000E-01  1.5561289929776E+00  5.2769939323658E-01
    37  3.6000000000000E-01  1.5574252359410E+00  4.7782489438010E-01
    38  3.7000000000000E-01  1.5559518758902E+00  4.2535299872311E-01
    39  3.8000000000000E-01  1.5517403189181E+00  3.7050896655919E-01
    40  3.9000000000000E-01  1.5448283901586E+00  3.1352629223980E-01
    41  4.0000000000000E-01  1.5352602032715E+00  2.5464551457105E-01
    42  4.1000000000000E-01  1.5230860117939E+00  1.9411302374776E-01
    43  4.2000000000000E-01  1.5083620427208E+00  1.3217987215978E-01
    44  4.3000000000000E-01  1.4911503127428E+00  6.9100596087975E-02
    45  4.4000000000000E-01  1.4715184276284E+00  5.1320549370578E-03
    46  4.5000000000000E-01  1.4495393653035E+00 -5.9467705766310E-02
    47  4.6000000000000E-01  1.4252912432423E+00 -1.2444056184388E-01
    48  4.7000000000000E-01  1.3988570708449E+00 -1.8952938313682E-01
    49  4.8000000000000E-01  1.3703244875352E+00 -2.5447906663945E-01
    50  4.9000000000000E-01  1.3397854873747E+00 -3.1903752591239E-01
    51  5.0000000000000E-01  1.3073361310401E+00 -3.8295663316436E-01
    52  5.1000000000000E-01  1.2730762460697E+00 -4.4599311097600E-01
    53  5.2000000000000E-01  1.2371091163358E+00 -5.0790937122767E-01
    54  5.3000000000000E-01  1.1995411617454E+00 -5.6847429938088E-01
    55  5.4000000000000E-01  1.1604816092233E+00 -6.2746398284075E-01
    56  5.5000000000000E-01  1.1200421560687E+00 -6.8466238269120E-01
    57  5.6000000000000E-01  1.0783366268185E+00 -7.3986194863776E-01
    58  5.7000000000000E-01  1.0354806247842E+00 -7.9286417750847E-01
    59  5.8000000000000E-01  9.9159117945795E-01 -8.4348011614852E-01
    60  5.9000000000000E-01  9.4678639101393E-01 -8.9153080999072E-01
    61  6.0000000000000E-01  9.0118507314555E-01 -9.3684769899044E-01
    62  6.1000000000000E-01  8.5490639550144E-01 -9.7927296297369E-01
    63  6.2000000000000E-01  8.0806952698967E-01 -1.0186598187591E+00
    64  6.3000000000000E-01  7.6079328122749E-01 -1.0548727716751E+00
    65  6.4000000000000E-01  7.1319576541275E-01 -1.0877878243014E+00
    66  6.5000000000000E-01  6.6539403388819E-01 -1.1172926454152E+00
    67  6.6000000000000E-01  6.1750374765793E-01 -1.1432867022224E+00
    68  6.7000000000000E-01  5.6963884109884E-01 -1.1656813589937E+00
    69  6.8000000000000E-01  5.2191119708630E-01 -1.1843999452164E+00
    70  6.9000000000000E-01  4.7443033172526E-01 -1.1993777963052E+00
    71  7.0000000000000E-01  4.2730308984322E-01 -1.2105622698031E+00
    72  7.1000000000000E-01  3.8063335236142E-01 -1.2179127398366E+00
    73  7.2000000000000E-01  3.3452175661531E-01 -1.2214005723854E+00
    74  7.3000000000000E-01  2.8906543064386E-01 -1.2210090836770E+00
    75  7.4000000000000E-01  2.4435774241148E-01 -1.2167334837323E+00
    76  7.5000000000000E-01  2.0048806486467E-01 -1.2085808067759E+00
    77  7.6000000000000E-01  1.5754155765981E-01 -1.1965698298830E+00
    78  7.7000000000000E-01  1.1559896632760E-01 -1.1807309808752E+00
    79  7.8000000000000E-01  7.4736439565410E-02 -1.1611062361064E+00
    80  7.9000000000000E-01  3.5025365269635E-02 -1.1377490083963E+00
    81  8.0000000000000E-01 -3.4677741612216E-03 -1.1107240249898E+00
    82  8.1000000000000E-01 -4.0681526807714E-02 -1.0801071950427E+00
    83  8.2000000000000E-01 -7.6559576137335E-02 -1.0459854657715E+00
    84  8.3000000000000E-01 -1.1105082557169E-01 -1.0084566660543E+00
    85  8.4000000000000E-01 -1.4410946253738E-01 -9.6762933595216E-01
    86  8.5000000000000E-01 -1.7569500191811E-01 -9.2362254032141E-01
    87  8.6000000000000E-01 -2.0577230891937E-01 -8.7656566443289E-01
    88  8.7000000000000E-01 -2.3431160145144E-01 -8.2659818929329E-01
    89  8.8000000000000E-01 -2.6128843223035E-01 -7.7386944418944E-01
    90  8.9000000000000E-01 -2.8668365088971E-01 -7.1853833385050E-01
    91  9.0000000000000E-01 -3.1048334648874E-01 -6.6077303754685E-01
    92  9.1000000000000E-01 -3.3267877089151E-01 -6.0075067742425E-01
    93  9.2000000000000E-01 -3.5326624358137E-01 -5.3865695340445E-01
    94  9.3000000000000E-01 -3.7224703855907E-01 -4.7468574207627E-01
    95  9.4000000000000E-01 -3.8962725405565E-01 -4.0903865714763E-01
    96  9.5000000000000E-01 -4.0541766586934E-01 -3.4192456923490E-01
    97  9.6000000000000E-01 -4.1963356521003E-01 -2.7355908302545E-01
    98  9.7000000000000E-01 -4.3229458200422E-01 -2.0416397016292E-01
    99  9.8000000000000E-01 -4.4342449467809E-01 -1.3396655656905E-01
   100  9.9000000000000E-01 -4.5305102749530E-01 -6.3199063326867E-02
   101  1.0000000000000E+00 -4.6120563657958E-01  7.9020992963139E-03
   102  1.0100000000000E+00 -4.6792328579922E-01  7.9097084614822E-02
   103  1.0200000000000E+00 -4.7324221373147E-01  1.5014340848531E-01
   104  1.0300000000000E+00 -4.7720369295915E-01  2.2079679331668E-01
   105  1.0400000000000E+00 -4.7985178297883E-01  2.9081205541375E-01
   106  1.0500000000000E+00 -4.8123307802034E-01  3.5994403335682E-01
   107  1.0600000000000E+00 -4.8139645109055E-01  4.2794855453058E-01
   108  1.0700000000000E+00 -4.8039279555985E-01  4.9458343633029E-01
   109  1.0800000000000E+00 -4.7827476560868E-01  5.5960951799734E-01
   110  1.0900000000000E+00 -4.7509651684220E-01  6.2279171847757E-01
   111  1.1000000000000E+00 -4.7091344836558E-01  6.8390011516417E-01
   112  1.1100000000000E+00 -4.6578194758869E-01  7.4271103788683E-01
   113  1.1200000000000E+00 -4.5975913899885E-01  7.9900817205043E-01
   114  1.1300000000000E+00 -4.5290263810324E-01  8.5258366441613E-01
   115  1.1400000000000E+00 -4.4527031169835E-01  9.0323922466044E-01
   116  1.1500000000000E+00 -4.3692004557400E-01  9.5078721555280E-01
   117  1.1600000000000E+00 -4.2790952070302E-01  9.9505172436269E-01
   118  1.1700000000000E+00 -4.1829599890530E-01  1.0358696079484E+00
   119  1.1800000000000E+00 -4.0813611890821E-01  1.0730915038979E+00
   120  1.1900000000000E+00 -3.9748570365210E-01  1.1065828000869E+00
   121  1.2000000000000E+00 -3.8639957961357E-01  1.1362245550988E+00
   122  1.2100000000000E+00 -3.7493140883759E-01  1.1619143621095E+00
   123  1.2200000000000E+00 -3.6313353428561E-01  1.1835671490857E+00
   124  1.2300000000000E+00 -3.5105683901907E-01  1.2011159084748E+00
   125  1.2400000000000E+00 -3.3875061964774E-01  1.2145123499720E+00
   126  1.2500000000000E+00 -3.2626247438088E-01  1.2237274704428E+00
   127  1.2600000000000E+00 -3.1363820592555E-01  1.2287520356476E+00
   128  1.2700000000000E+00 -3.0092173938288E-01  1.2295969690547E+00
   129  1.2800000000000E+00 -2.8815505519879E-01  1.2262936437361E+00
   130  1.2900000000000E+00 -2.7537813713215E-01  1.2188940741133E+00
   131  1.3000000000000E+00 -2.6262893511033E-01  1.2074710051474E+00
   132  1.3100000000000E+00 -2.4994334275173E-01  1.1921178974363E+00
   133  1.3200000000000E+00 -2.3735518924480E-01  1.1729488076047E+00
   134  1.3300000000000E+00 -2.2489624518783E-01  1.1500981643116E+00
   135  1.3400000000000E+00 -2.1259624190984E-01  1.1237204411677E+00
   136  1.3500000000000E+00 -2.0048290371423E-01  1.0939897288387E+00
   137  1.3600000000000E+00 -1.8858199241090E-01  1.0610992095860E+00
   138  1.3700000000000E+00 -1.7691736343261E-01  1.0252605384785E+00
   139  1.3800000000000E+00 -1.6551103276556E-01  9.8670313645513E-01
   140  1.3900000000000E+00 -1.5438325386413E-01  9.4567340135440E-01
   141  1.4000000000000E+00 -1.4355260366553E-01  9.0243384391248E-01
   142  1.4100000000000E+00 -1.3303607677185E-01  8.5726215657318E-01
   143  1.4200000000000E+00 -1.2284918682524E-01  8.1045022373908E-01
   144  1.4300000000000E+00 -1.1300607406685E-01  7.6230308280758E-01
   145  1.4400000000000E+00 -1.0351961804135E-01  7.1313784598335E-01
   146  1.4500000000000E+00 -9.4401554387572E-02  6.6328259341591E-01
   147  1.4600000000000E+00 -8.5662594662024E-02  6.1307524920799E-01
   148  1.4700000000000E+00 -7.7312547357458E-02  5.6286243370372E-01
   149  1.4800000000000E+00 -6.9360444762730E-02  5.1299843831291E-01
   150  1.4900000000000E+00 -6.1814568281739E-02  4.6384180781415E-01
   151  1.5000000000000E+00 -5.4682150539217E-02  4.1574375805075E-01
   152  1.5100000000000E+00 -4.7969272560479E-02  3.6904015645170E-01
   153  1.5200000000000E+00 -4.1681040349767E-02  3.2404990417498E-01
   154  1.5300000000000E+00 -3.5821752791683E-02  2.8107335375549E-01
   155  1.5400000000000E+00 -3.0395064089177E-02  2.4039086019745E-01
   156  1.5500000000000E+00 -2.5404137447446E-02  2.0226141914874E-01
   157  1.5600000000000E+00 -2.0851788479765E-02  1.6692140799672E-01
   158  1.5700000000000E+00 -1.6740619735126E-02  1.3458354876824E-01
   159  1.5800000000000E+00 -1.3073435103356E-02  1.0542189535881E-01
   160  1.5900000000000E+00 -9.8531374363209E-03  7.9574453369620E-02
   161  1.6000000000000E+00 -7.0818262497730E-03  5.7192779449862E-02
   162  1.6100000000000E+00 -4.7620132313828E-03  3.8399322105086E-02
   163  1.6200000000000E+00 -2.8966447972683E-03  2.3286698640875E-02
   164  1.6300000000000E+00 -1.4896416501952E-03  1.1921069591591E-02
   165  1.6400000000000E+00 -5.4026528868269E-04  4.2978593155663E-03
   166  1.6500000000000E+00 -7.3910074620528E-05  5.8332792707304E-04
   167  1.6600000000000E+00  1.0907399727929E-05 -8.5690067958511E-05
   168  1.6700000000000E+00 -3.4189155775458E-06  2.6959849789055E-05
   169  1.68  0. -0.
   170  1.69 -0.  0.
   171  1.70  0.  0.
   172  1.71  0.  0.
   173  1.72  0.  0.
   174  1.73  0.  0.
   175  1.74  0.  0.
   176  1.75  0.  0.
   177  1.76  0.  0.
   178  1.77  0.  0.
   179  1.78  0.  0.
   180  1.79  0.  0.
   181  1.80  0.  0.
   182  1.81  0.  0.
   183  1.82  0.  0.
   184  1.83  0.  0.
   185  1.84  0.  0.
   186  1.85  0.  0.
   187  1.86  0.  0.
   188  1.87  0.  0.
   189  1.88  0.  0.
   190  1.89  0.  0.
   191  1.90  0.  0.
   192  1.91  0.  0.
   193  1.92  0.  0.
   194  1.93  0.  0.
   195  1.94  0.  0.
   196  1.95  0.  0.
   197  1.96  0.  0.
   198  1.97  0.  0.
   199  1.98  0.  0.
   200  1.99  0.  0.
   201  2.00  0.  0.
   202  2.01  0.  0.
   203  2.02  0.  0.
   204  2.03  0.  0.
   205  2.04  0.  0.
   206  2.05  0.  0.
   207  2.06  0.  0.
   208  2.07  0.  0.
   209  2.08  0.  0.
   210  2.09  0.  0.
   211  2.10  0.  0.
   212  2.11  0.  0.
   213  2.12  0.  0.
   214  2.13  0.  0.
   215  2.14  0.  0.
   216  2.15  0.  0.
   217  2.16  0.  0.
   218  2.17  0.  0.
   219  2.18  0.  0.
   220  2.19  0.  0.
   221  2.20  0.  0.
   222  2.21  0.  0.
   223  2.22  0.  0.
   224  2.23  0.  0.
   225  2.24  0.  0.
   226  2.25  0.  0.
   227  2.26  0.  0.
   228  2.27  0.  0.
   229  2.28  0.  0.
   230  2.29  0.  0.
   231  2.30  0.  0.
   232  2.31  0.  0.
   233  2.32  0.  0.
   234  2.33  0.  0.
   235  2.34  0.  0.
   236  2.35  0.  0.
   237  2.36  0.  0.
   238  2.37  0.  0.
   239  2.38  0.  0.
   240  2.39  0.  0.
   241  2.40  0.  0.
   242  2.41  0.  0.
   243  2.42  0.  0.
   244  2.43  0.  0.
   245  2.44  0.  0.
   246  2.45  0.  0.
   247  2.46  0.  0.
   248  2.47  0.  0.
   249  2.48  0.  0.
   250  2.49  0.  0.
   251  2.50  0.  0.
   252  2.51  0.  0.
   253  2.52  0.  0.
   254  2.53  0.  0.
   255  2.54  0.  0.
   256  2.55  0.  0.
   257  2.56  0.  0.
   258  2.57  0.  0.
   259  2.58  0.  0.
   260  2.59  0.  0.
   261  2.60  0.  0.
   262  2.61  0.  0.
   263  2.62  0.  0.
   264  2.63  0.  0.
   265  2.64  0.  0.
   266  2.65  0.  0.
   267  2.66  0.  0.
   268  2.67  0.  0.
   269  2.68  0.  0.
   270  2.69  0.  0.
   271  2.70  0.  0.
   272  2.71  0.  0.
   273  2.72  0.  0.
   274  2.73  0.  0.
   275  2.74  0.  0.
   276  2.75  0.  0.
   277  2.76  0.  0.
   278  2.77  0.  0.
   279  2.78  0.  0.
   280  2.79  0.  0.
   281  2.80  0.  0.
   282  2.81  0.  0.
   283  2.82  0.  0.
   284  2.83  0.  0.
   285  2.84  0.  0.
   286  2.85  0.  0.
   287  2.86  0.  0.
   288  2.87  0.  0.
   289  2.88  0.  0.
   290  2.89  0.  0.
   291  2.90  0.  0.
   292  2.91  0.  0.
   293  2.92  0.  0.
   294  2.93  0.  0.
   295  2.94  0.  0.
   296  2.95  0.  0.
   297  2.96  0.  0.
   298  2.97  0.  0.
   299  2.98  0.  0.
   300  2.99  0.  0.
   301  3.00  0.  0.
   302  3.01  0.  0.
   303  3.02  0.  0.
   304  3.03  0.  0.
   305  3.04  0.  0.
   306  3.05  0.  0.
   307  3.06  0.  0.
   308  3.07  0.  0.
   309  3.08  0.  0.
   310  3.09  0.  0.
   311  3.10  0.  0.
   312  3.11  0.  0.
   313  3.12  0.  0.
   314  3.13  0.  0.
   315  3.14  0.  0.
   316  3.15  0.  0.
   317  3.16  0.  0.
   318  3.17  0.  0.
   319  3.18  0.  0.
   320  3.19  0.  0.
   321  3.20  0.  0.
   322  3.21  0.  0.
   323  3.22  0.  0.
   324  3.23  0.  0.
   325  3.24  0.  0.
   326  3.25  0.  0.
   327  3.26  0.  0.
   328  3.27  0.  0.
   329  3.28  0.  0.
   330  3.29  0.  0.
   331  3.30  0.  0.
   332  3.31  0.  0.
   333  3.32  0.  0.
   334  3.33  0.  0.
   335  3.34  0.  0.
   336  3.35  0.  0.
   337  3.36  0.  0.
   338  3.37  0.  0.
   339  3.38  0.  0.
   340  3.39  0.  0.
   341  3.40  0.  0.
   342  3.41  0.  0.
   343  3.42  0.  0.
   344  3.43  0.  0.
   345  3.44  0.  0.
   346  3.45  0.  0.
   347  3.46  0.  0.
   348  3.47  0.  0.
   349  3.48  0.  0.
   350  3.49  0.  0.
   351  3.50  0.  0.
   352  3.51  0.  0.
   353  3.52  0.  0.
   354  3.53  0.  0.
   355  3.54  0.  0.
   356  3.55  0.  0.
   357  3.56  0.  0.
   358  3.57  0.  0.
   359  3.58  0.  0.
   360  3.59  0.  0.
   361  3.60  0.  0.
   362  3.61  0.  0.
   363  3.62  0.  0.
   364  3.63  0.  0.
   365  3.64  0.  0.
   366  3.65  0.  0.
   367  3.66  0.  0.
   368  3.67  0.  0.
   369  3.68  0.  0.
   370  3.69  0.  0.
   371  3.70  0.  0.
   372  3.71  0.  0.
   373  3.72  0.  0.
   374  3.73  0.  0.
   375  3.74  0.  0.
   376  3.75  0.  0.
   377  3.76  0.  0.
   378  3.77  0.  0.
   379  3.78  0.  0.
   380  3.79  0.  0.
   381  3.80  0.  0.
   382  3.81  0.  0.
   383  3.82  0.  0.
   384  3.83  0.  0.
   385  3.84  0.  0.
   386  3.85  0.  0.
   387  3.86  0.  0.
   388  3.87  0.  0.
   389  3.88  0.  0.
   390  3.89  0.  0.
   391  3.90  0.  0.
   392  3.91  0.  0.
   393  3.92  0.  0.
   394  3.93  0.  0.
   395  3.94  0.  0.
   396  3.95  0.  0.
   397  3.96  0.  0.
   398  3.97  0.  0.
   399  3.98  0.  0.
   400  3.99  0.  0.
   401  4.00  0.  0.
   402  4.01  0.  0.
   403  4.02  0.  0.
   404  4.03  0.  0.
   405  4.04  0.  0.
   406  4.05  0.  0.
   407  4.06  0.  0.
   408  4.07  0.  0.
   409  4.08  0.  0.
   410  4.09  0.  0.
   411  4.10  0.  0.
   412  4.11  0.  0.
   413  4.12  0.  0.
   414  4.13  0.  0.
   415  4.14  0.  0.
   416  4.15  0.  0.
   417  4.16  0.  0.
   418  4.17  0.  0.
   419  4.18  0.  0.
   420  4.19  0.  0.
   421  4.20  0.  0.
   422  4.21  0.  0.
   423  4.22  0.  0.
   424  4.23  0.  0.
   425  4.24  0.  0.
   426  4.25  0.  0.
   427  4.26  0.  0.
   428  4.27  0.  0.
   429  4.28  0.  0.
   430  4.29  0.  0.
   431  4.30  0.  0.
   432  4.31  0.  0.
   433  4.32  0.  0.
   434  4.33  0.  0.
   435  4.34  0.  0.
   436  4.35  0.  0.
   437  4.36  0.  0.
   438  4.37  0.  0.
   439  4.38  0.  0.
   440  4.39  0.  0.
   441  4.40  0.  0.
   442  4.41  0.  0.
   443  4.42  0.  0.
   444  4.43  0.  0.
   445  4.44  0.  0.
   446  4.45  0.  0.
   447  4.46  0.  0.
   448  4.47  0.  0.
   449  4.48  0.  0.
   450  4.49  0.  0.
   451  4.50  0.  0.
   452  4.51  0.  0.
   453  4.52  0.  0.
   454  4.53  0.  0.
   455  4.54  0.  0.
   456  4.55  0.  0.
   457  4.56  0.  0.
   458  4.57  0.  0.
   459  4.58  0.  0.
   460  4.59  0.  0.
   461  4.60  0.  0.
   462  4.61  0.  0.
   463  4.62  0.  0.
   464  4.63  0.  0.
   465  4.64  0.  0.
   466  4.65  0.  0.
   467  4.66  0.  0.
   468  4.67  0.  0.
   469  4.68  0.  0.
   470  4.69  0.  0.
   471  4.70  0.  0.
   472  4.71  0.  0.
   473  4.72  0.  0.
   474  4.73  0.  0.
   475  4.74  0.  0.
   476  4.75  0.  0.
   477  4.76  0.  0.
   478  4.77  0.  0.
   479  4.78  0.  0.
   480  4.79  0.  0.
   481  4.80  0.  0.
   482  4.81  0.  0.
   483  4.82  0.  0.
   484  4.83  0.  0.
   485  4.84  0.  0.
   486  4.85  0.  0.
   487  4.86  0.  0.
   488  4.87  0.  0.
   489  4.88  0.  0.
   490  4.89  0.  0.
   491  4.90  0.  0.
   492  4.91  0.  0.
   493  4.92  0.  0.
   494  4.93  0.  0.
   495  4.94  0.  0.
   496  4.95  0.  0.
   497  4.96  0.  0.
   498  4.97  0.  0.
   499  4.98  0.  0.
   500  4.99  0.  0.
   501  5.00  0.  0.
   502  5.01  0.  0.
   503  5.02  0.  0.
   504  5.03  0.  0.
   505  5.04  0.  0.
   506  5.05  0.  0.
   507  5.06  0.  0.
   508  5.07  0.  0.
   509  5.08  0.  0.
   510  5.09  0.  0.
   511  5.10  0.  0.
   512  5.11  0.  0.
   513  5.12  0.  0.
   514  5.13  0.  0.
   515  5.14  0.  0.
   516  5.15  0.  0.
   517  5.16  0.  0.
   518  5.17  0.  0.
   519  5.18  0.  0.
   520  5.19  0.  0.
   521  5.20  0.  0.
   522  5.21  0.  0.
   523  5.22  0.  0.
   524  5.23  0.  0.
   525  5.24  0.  0.
   526  5.25  0.  0.
   527  5.26  0.  0.
   528  5.27  0.  0.
   529  5.28  0.  0.
   530  5.29  0.  0.
   531  5.30  0.  0.
   532  5.31  0.  0.
   533  5.32  0.  0.
   534  5.33  0.  0.
   535  5.34  0.  0.
   536  5.35  0.  0.
   537  5.36  0.  0.
   538  5.37  0.  0.
   539  5.38  0.  0.
   540  5.39  0.  0.
   541  5.40  0.  0.
   542  5.41  0.  0.
   543  5.42  0.  0.
   544  5.43  0.  0.
   545  5.44  0.  0.
   546  5.45  0.  0.
   547  5.46  0.  0.
   548  5.47  0.  0.
   549  5.48  0.  0.
   550  5.49  0.  0.
   551  5.50  0.  0.
   552  5.51  0.  0.
   553  5.52  0.  0.
   554  5.53  0.  0.
   555  5.54  0.  0.
   556  5.55  0.  0.
   557  5.56  0.  0.
   558  5.57  0.  0.
   559  5.58  0.  0.
   560  5.59  0.  0.
   561  5.60  0.  0.
   562  5.61  0.  0.
   563  5.62  0.  0.
   564  5.63  0.  0.
   565  5.64  0.  0.
   566  5.65  0.  0.
   567  5.66  0.  0.
   568  5.67  0.  0.
   569  5.68  0.  0.
   570  5.69  0.  0.
   571  5.70  0.  0.
   572  5.71  0.  0.
   573  5.72  0.  0.
   574  5.73  0.  0.
   575  5.74  0.  0.
   576  5.75  0.  0.
   577  5.76  0.  0.
   578  5.77  0.  0.
   579  5.78  0.  0.
   580  5.79  0.  0.
   581  5.80  0.  0.
   582  5.81  0.  0.
   583  5.82  0.  0.
   584  5.83  0.  0.
   585  5.84  0.  0.
   586  5.85  0.  0.
   587  5.86  0.  0.
   588  5.87  0.  0.
   589  5.88  0.  0.
   590  5.89  0.  0.
   591  5.90  0.  0.
   592  5.91  0.  0.
   593  5.92  0.  0.
   594  5.93  0.  0.
   595  5.94  0.  0.
   596  5.95  0.  0.
   597  5.96  0.  0.
   598  5.97  0.  0.
   599  5.98  0.  0.
   600  5.99  0.  0.
   1                        -1.1652710709492E+00 -2.2670247043671E-01
     1  0.0000000000000E+00 -3.8941326205300E-10  2.3489064859827E-09
     2  1.0000000000000E-02  3.3362506511824E-04  6.7481065375576E-04
     3  2.0000000000000E-02  1.3357391204325E-03  2.6905214740561E-03
     4  3.0000000000000E-02  3.0100397264805E-03  6.0210730760699E-03
     5  4.0000000000000E-02  5.3626263010431E-03  1.0623378636036E-02
     6  5.0000000000000E-02  8.4019060937925E-03  1.6437837550877E-02
     7  6.0000000000000E-02  1.2138464040123E-02  2.3389045490274E-02
     8  7.0000000000000E-02  1.6584897962279E-02  3.1386691913486E-02
     9  8.0000000000000E-02  2.1755620975306E-02  4.0326633774286E-02
    10  9.0000000000000E-02  2.7666633322600E-02  5.0092131939252E-02
    11  1.0000000000000E-01  3.4335266206863E-02  6.0555234820685E-02
    12  1.1000000000000E-01  4.1779900492920E-02  7.1578291908255E-02
    13  1.2000000000000E-01  5.0019663435304E-02  8.3015578291942E-02
    14  1.3000000000000E-01  5.9074106823122E-02  9.4715009926724E-02
    15  1.4000000000000E-01  6.8962870133995E-02  1.0651992831344E-01
    16  1.5000000000000E-01  7.9705332446312E-02  1.1827093247341E-01
    17  1.6000000000000E-01  9.1320256972316E-02  1.2980773558863E-01
    18  1.7000000000000E-01  1.0382543214295E-01  1.4097102346953E-01
    19  1.8000000000000E-01  1.1723731319804E-01  1.5160429210160E-01
    20  1.9000000000000E-01  1.3157066821217E-01  1.6155564190850E-01
    21  2.0000000000000E-01  1.4683823241867E-01  1.7067950704798E-01
    22  2.1000000000000E-01  1.6305037458123E-01  1.7883829901662E-01
    23  2.2000000000000E-01  1.8021477900813E-01  1.8590394506983E-01
    24  2.3000000000000E-01  1.9833614660871E-01  1.9175930344349E-01
    25  2.4000000000000E-01  2.1741591815838E-01  1.9629943907826E-01
    26  2.5000000000000E-01  2.3745202267119E-01  1.9943274546766E-01
    27  2.6000000000000E-01  2.5843865347989E-01  2.0108190035523E-01
    28  2.7000000000000E-01  2.8036607429754E-01  2.0118464526248E-01
    29  2.8000000000000E-01  3.0322045718554E-01  1.9969438120928E-01
    30  2.9000000000000E-01  3.2698375398539E-01  1.9658057545677E-01
    31  3.0000000000000E-01  3.5163360238992E-01  1.9182897663014E-01
    32  3.1000000000000E-01  3.7714326743937E-01  1.8544163812546E-01
    33  3.2000000000000E-01  4.0348161883279E-01  1.7743675223999E-01
    34  3.3000000000000E-01  4.3061314405165E-01  1.6784829995314E-01
    35  3.4000000000000E-01  4.5849799690448E-01  1.5672552369101E-01
    36  3.5000000000000E-01  4.8709208072366E-01  1.4413223269862E-01
    37  3.6000000000000E-01  5.1634716508321E-01  1.3014595279022E-01
    38  3.7000000000000E-01  5.4621103456380E-01  1.1485693421761E-01
    39  3.8000000000000E-01  5.7662766777169E-01  9.8367033165239E-02
    40  3.9000000000000E-01  6.0753744452706E-01  8.0788483921378E-02
    41  4.0000000000000E-01  6.3887737887618E-01  6.2242580069289E-02
    42  4.1000000000000E-01  6.7058137535489E-01  4.2858284069566E-02
    43  4.2000000000000E-01  7.0258050574015E-01  2.2770785354054E-02
    44  4.3000000000000E-01  7.3480330337431E-01  2.1200275099135E-03
    45  4.4000000000000E-01  7.6717607203358E-01 -1.8950774704586E-02
    46  4.5000000000000E-01  7.9962320624083E-01 -4.0296607906831E-02
    47  4.6000000000000E-01  8.3206751989144E-01 -6.1772102024642E-02
    48  4.7000000000000E-01  8.6443058007125E-01 -8.3232922166149E-02
    49  4.8000000000000E-01  8.9663304299523E-01 -1.0453709197204E-01
    50  4.9000000000000E-01  9.2859498908483E-01 -1.2554623126342E-01
    51  5.0000000000000E-01  9.6023625432725E-01 -1.4612669231081E-01
    52  5.1000000000000E-01  9.9147675522065E-01 -1.6615058078724E-01
    53  5.2000000000000E-01  1.0222368048015E+00 -1.8549664940638E-01
    54  5.3000000000000E-01  1.0524374174711E+00 -2.0405105435616E-01
    55  5.4000000000000E-01  1.0820006005846E+00 -2.2170796688991E-01
    56  5.5000000000000E-01  1.1108496310330E+00 -2.3837003479767E-01
    57  5.6000000000000E-01  1.1389093153317E+00 -2.5394869091458E-01
    58  5.7000000000000E-01  1.1661062320276E+00 -2.6836430829774E-01
    59  5.8000000000000E-01  1.1923689555397E+00 -2.8154620417869E-01
    60  5.9000000000000E-01  1.2176282608564E+00 -2.9343249724071E-01
    61  6.0000000000000E-01  1.2418173088189E+00 -3.0396982514133E-01
    62  6.1000000000000E-01  1.2648718120217E+00 -3.1311293146625E-01
    63  6.2000000000000E-01  1.2867301816481E+00 -3.2082413342440E-01
    64  6.3000000000000E-01  1.3073336558370E+00 -3.2707268354686E-01
    65  6.4000000000000E-01  1.3266264104293E+00 -3.3183404039961E-01
    66  6.5000000000000E-01  1.3445556531782E+00 -3.3508906483860E-01
    67  6.6000000000000E-01  1.3610717027115E+00 -3.3682315959765E-01
    68  6.7000000000000E-01  1.3761280537126E+00 -3.3702537098681E-01
    69  6.8000000000000E-01  1.3896814299319E+00 -3.3568747217171E-01
    70  6.9000000000000E-01  1.4016918267492E+00 -3.3280304789269E-01
    71  7.0000000000000E-01  1.4121225450841E+00 -3.2836660055493E-01
    72  7.1000000000000E-01  1.4209402184904E+00 -3.2237269737642E-01
    73  7.2000000000000E-01  1.4281148352680E+00 -3.1481517771541E-01
    74  7.3000000000000E-01  1.4336197573936E+00 -3.0568643882424E-01
    75  7.4000000000000E-01  1.4374317379933E+00 -2.9497681709623E-01
    76  7.5000000000000E-01  1.4395309389779E+00 -2.8267408040350E-01
    77  7.6000000000000E-01  1.4399009503130E+00 -2.6876304538705E-01
    78  7.7000000000000E-01  1.4385288122287E+00 -2.5322533157322E-01
    79  7.8000000000000E-01  1.4354050414678E+00 -2.3603926198609E-01
    80  7.9000000000000E-01  1.4305236624480E+00 -2.1717991752904E-01
    81  8.0000000000000E-01  1.4238822439622E+00 -1.9661934985661E-01
    82  8.1000000000000E-01  1.4154819417787E+00 -1.7432695478345E-01
    83  8.2000000000000E-01  1.4053275472235E+00 -1.5027000552343E-01
    84  8.3000000000000E-01  1.3934275415394E+00 -1.2441434225362E-01
    85  8.4000000000000E-01  1.3797941555297E+00 -9.6725211699471E-02
    86  8.5000000000000E-01  1.3644434337021E+00 -6.7168247680898E-02
    87  8.6000000000000E-01  1.3473953018505E+00 -3.5710580883067E-02
    88  8.7000000000000E-01  1.3286736367391E+00 -2.3220635663307E-03
    89  8.8000000000000E-01  1.3083063363002E+00  3.3023407458581E-02
    90  8.9000000000000E-01  1.2863253885255E+00  7.0346488448247E-02
    91  9.0000000000000E-01  1.2627669370204E+00  1.0966092774192E-01
    92  9.1000000000000E-01  1.2376713410137E+00  1.5097206865669E-01
    93  9.2000000000000E-01  1.2110832274727E+00  1.9427534011895E-01
    94  9.3000000000000E-01  1.1830515328595E+00  2.3955475993953E-01
    95  9.4000000000000E-01  1.1536295320001E+00  2.8678147634162E-01
    96  9.5000000000000E-01  1.1228748515081E+00  3.3591237368834E-01
    97  9.6000000000000E-01  1.0908494652178E+00  3.8688876832023E-01
    98  9.7000000000000E-01  1.0576196691440E+00  4.3963521999071E-01
    99  9.8000000000000E-01  1.0232560335855E+00  4.9405848358461E-01
   100  9.9000000000000E-01  9.8783333014026E-01  5.5004662462095E-01
   101  1.0000000000000E+00  9.5143043158665E-01  6.0746832048653E-01
   102  1.0100000000000E+00  9.1413018282097E-01  6.6617236743854E-01
   103  1.0200000000000E+00  8.7601924130892E-01  7.2598741117257E-01
   104  1.0300000000000E+00  8.3718788581839E-01  7.8672191619776E-01
   105  1.0400000000000E+00  7.9772979253975E-01  8.4816438643158E-01
   106  1.0500000000000E+00  7.5774177806847E-01  9.1008384635091E-01
   107  1.0600000000000E+00  7.1732350911811E-01  9.7223058875476E-01
   108  1.0700000000000E+00  6.7657717924321E-01  1.0343371917485E+00
   109  1.0800000000000E+00  6.3560715327717E-01  1.0961198040000E+00
   110  1.0900000000000E+00  5.9451958062443E-01  1.1572796936781E+00
   111  1.1000000000000E+00  5.5342197898104E-01  1.2175050528361E+00
   112  1.1100000000000E+00  5.1242279049050E-01  1.2764730453683E+00
   113  1.1200000000000E+00  4.7163091276244E-01  1.3338520831281E+00
   114  1.1300000000000E+00  4.3115520758782E-01  1.3893043113729E+00
   115  1.1400000000000E+00  3.9110399056666E-01  1.4424882814688E+00
   116  1.1500000000000E+00  3.5158450521953E-01  1.4930617857748E+00
   117  1.1600000000000E+00  3.1270238547480E-01  1.5406848268929E+00
   118  1.1700000000000E+00  2.7456111070585E-01  1.5850226910468E+00
   119  1.1800000000000E+00  2.3726145773042E-01  1.6257490932876E+00
   120  1.1900000000000E+00  2.0090095437455E-01  1.6625493605451E+00
   121  1.2000000000000E+00  1.6557333934181E-01  1.6951236172874E+00
   122  1.2100000000000E+00  1.3136803321188E-01  1.7231899377334E+00
   123  1.2200000000000E+00  9.8369625418721E-02  1.7464874282112E+00
   124  1.2300000000000E+00  6.6657382025781E-02  1.7647792033771E+00