Cr    ONCVPSP-4.0.1  r_core=   1.66398   2.07622   1.93240
     24.0000     14.0000      230118    zatom,zion,pspd
     8       2   2     4   600     0    pspcod,pspxc,lmax,lloc,mmax,r2well
  5.99000000  5.00000000  0.00000000    rchrg fchrg qchrg
     2     2     2     0     0    nproj
     1     1           extension_switch
   0                         3.9344207672095E+00 -1.4412781060803E-01
     1  0.0000000000000E+00 -2.7494118093330E-11 -1.6935003399610E-10
     2  1.0000000000000E-02  7.7866995686159E-02  5.0152080676959E-02
     3  2.0000000000000E-02  1.5554448498341E-01  1.0005693400400E-01
     4  3.0000000000000E-02  2.3284353680061E-01  1.4946862793310E-01
     5  4.0000000000000E-02  3.0957636867661E-01  1.9814381387103E-01
     6  5.0000000000000E-02  3.8555691618862E-01  2.4584300057720E-01
     7  6.0000000000000E-02  4.6060139649180E-01  2.9233180678622E-01
     8  7.0000000000000E-02  5.3452886406626E-01  3.3738218566261E-01
     9  8.0000000000000E-02  6.0716175677479E-01  3.8077361436459E-01
    10  9.0000000000000E-02  6.7832643036927E-01  4.2229424220285E-01
    11  1.0000000000000E-01  7.4785367962400E-01  4.6174199112910E-01
    12  1.1000000000000E-01  8.1557924432202E-01  4.9892560257402E-01
    13  1.2000000000000E-01  8.8134429837357E-01  5.3366562497583E-01
    14  1.3000000000000E-01  9.4499592040607E-01  5.6579533669462E-01
    15  1.4000000000000E-01  1.0063875442304E+00  5.9516159939286E-01
    16  1.5000000000000E-01  1.0653793876597E+00  6.2162563737651E-01
    17  1.6000000000000E-01  1.1218388582344E+00  6.4506373883071E-01
    18  1.7000000000000E-01  1.1756409344881E+00  6.6536787534674E-01
    19  1.8000000000000E-01  1.2266685214784E+00  6.8244623661963E-01
    20  1.9000000000000E-01  1.2748127793960E+00  6.9622367769550E-01
    21  2.0000000000000E-01  1.3199734241636E+00  7.0664207666083E-01
    22  2.1000000000000E-01  1.3620589990362E+00  7.1366060118972E-01
    23  2.2000000000000E-01  1.4009871163172E+00  7.1725588289587E-01
    24  2.3000000000000E-01  1.4366846684139E+00  7.1742209897025E-01
    25  2.4000000000000E-01  1.4690880075652E+00  7.1417096112033E-01
    26  2.5000000000000E-01  1.4981430936874E+00  7.0753161235749E-01
    27  2.6000000000000E-01  1.5238056098997E+00  6.9755043270500E-01
    28  2.7000000000000E-01  1.5460410454075E+00  6.8429075541295E-01
    29  2.8000000000000E-01  1.5648247455398E+00  6.6783249576938E-01
    30  2.9000000000000E-01  1.5801419288570E+00  6.4827169508174E-01
    31  3.0000000000000E-01  1.5919876713633E+00  6.2571998286987E-01
    32  3.1000000000000E-01  1.6003668579802E+00  6.0030396075578E-01
    33  3.2000000000000E-01  1.6052941015549E+00  5.7216451195534E-01
    34  3.3000000000000E-01  1.6067936297953E+00  5.4145604066910E-01
    35  3.4000000000000E-01  1.6048991406434E+00  5.0834564603249E-01
    36  3.5000000000000E-01  1.5996536267112E+00  4.7301223561646E-01
    37  3.6000000000000E-01  1.5911091695164E+00  4.3564558376705E-01
    38  3.7000000000000E-01  1.5793267043682E+00  3.9644534033532E-01
    39  3.8000000000000E-01  1.5643757568576E+00  3.5561999557362E-01
    40  3.9000000000000E-01  1.5463341520120E+00  3.1338580716359E-01
    41  4.0000000000000E-01  1.5252876972734E+00  2.6996569548982E-01
    42  4.1000000000000E-01  1.5013298405535E+00  2.2558811338457E-01
    43  4.2000000000000E-01  1.4745613047119E+00  1.8048589663889E-01
    44  4.3000000000000E-01  1.4450896998865E+00  1.3489510160905E-01
    45  4.4000000000000E-01  1.4130291151864E+00  8.9053836238301E-02
    46  4.5000000000000E-01  1.3784996913304E+00  4.3201090769406E-02
    47  4.6000000000000E-01  1.3416271758838E+00 -2.4244256607710E-03
    48  4.7000000000000E-01  1.3025424628047E+00 -4.7585436472755E-02
    49  4.8000000000000E-01  1.2613811180686E+00 -9.2047231226634E-02
    50  4.9000000000000E-01  1.2182828931843E+00 -1.3557877560736E-01
    51  5.0000000000000E-01  1.1733912284573E+00 -1.7795379230818E-01
    52  5.1000000000000E-01  1.1268527478879E+00 -2.1895180755752E-01
    53  5.2000000000000E-01  1.0788167476165E+00 -2.5835915831394E-01
    54  5.3000000000000E-01  1.0294346798486E+00 -2.9596995545880E-01
    55  5.4000000000000E-01  9.7885963419778E-01 -3.3158699864277E-01
    56  5.5000000000000E-01  9.2724581839108E-01 -3.6502263879151E-01
    57  5.6000000000000E-01  8.7474804027252E-01 -3.9609958464056E-01
    58  5.7000000000000E-01  8.2152119302859E-01 -4.2465165004996E-01
    59  5.8000000000000E-01  7.6771974553720E-01 -4.5052443924180E-01
    60  5.9000000000000E-01  7.1349723971269E-01 -4.7357596750494E-01
    61  6.0000000000000E-01  6.5900579668309E-01 -4.9367721531873E-01
    62  6.1000000000000E-01  6.0439563359107E-01 -5.1071261425816E-01
    63  6.2000000000000E-01  5.4981459275927E-01 -5.2458046345369E-01
    64  6.3000000000000E-01  4.9540768490168E-01 -5.3519327578774E-01
    65  6.4000000000000E-01  4.4131664799770E-01 -5.4247805341241E-01
    66  6.5000000000000E-01  3.8767952337385E-01 -5.4637649256884E-01
    67  6.6000000000000E-01  3.3463025045976E-01 -5.4684511807274E-01
    68  6.7000000000000E-01  2.8229828160154E-01 -5.4385534820297E-01
    69  6.8000000000000E-01  2.3080821822589E-01 -5.3739349108716E-01
    70  6.9000000000000E-01  1.8027946955412E-01 -5.2746067401706E-01
    71  7.0000000000000E-01  1.3082593496568E-01 -5.1407270744849E-01
    72  7.1000000000000E-01  8.2555711007424E-02 -4.9725988573997E-01
    73  7.2000000000000E-01  3.5570823937599E-02 -4.7706672696225E-01
    74  7.3000000000000E-01 -1.0033011417547E-02 -4.5355165436639E-01
    75  7.4000000000000E-01 -5.4166605829832E-02 -4.2678662232697E-01
    76  7.5000000000000E-01 -9.6747482309405E-02 -3.9685668978388E-01
    77  7.6000000000000E-01 -1.3770003478847E-01 -3.6385954438405E-01
    78  7.7000000000000E-01 -1.7695565853690E-01 -3.2790498067882E-01
    79  7.8000000000000E-01 -2.1445285211812E-01 -2.8911433585898E-01
    80  7.9000000000000E-01 -2.5013729081399E-01 -2.4761988661165E-01
    81  8.0000000000000E-01 -2.8396187156739E-01 -2.0356421075687E-01
    82  8.1000000000000E-01 -3.1588672961028E-01 -1.5709951737282E-01
    83  8.2000000000000E-01 -3.4587922706322E-01 -1.0838694914336E-01
    84  8.3000000000000E-01 -3.7391391390815E-01 -5.7595860663105E-02
    85  8.4000000000000E-01 -3.9997246185007E-01 -4.9030764136934E-03
    86  8.5000000000000E-01 -4.2404357169402E-01  4.9507867917445E-02
    87  8.6000000000000E-01 -4.4612285497155E-01  1.0544749716817E-01
    88  8.7000000000000E-01 -4.6621269065399E-01  1.6272117795660E-01
    89  8.8000000000000E-01 -4.8432205788998E-01  2.2112990603384E-01
    90  8.9000000000000E-01 -5.0046634579847E-01  2.8047109642307E-01
    91  9.0000000000000E-01 -5.1466714143884E-01  3.4053937316346E-01
    92  9.1000000000000E-01 -5.2695199716272E-01  4.0112735561898E-01
    93  9.2000000000000E-01 -5.3735417863108E-01  4.6202643846521E-01
    94  9.3000000000000E-01 -5.4591239485089E-01  5.2302756262892E-01
    95  9.4000000000000E-01 -5.5267051165164E-01  5.8392197462493E-01
    96  9.5000000000000E-01 -5.5767725007944E-01  6.4450197190967E-01
    97  9.6000000000000E-01 -5.6098587123817E-01  7.0456163205076E-01
    98  9.7000000000000E-01 -5.6265384915018E-01  7.6389752369449E-01
    99  9.8000000000000E-01 -5.6274253324567E-01  8.2230939749616E-01
   100  9.9000000000000E-01 -5.6131680211795E-01  8.7960085536316E-01
   101  1.0000000000000E+00 -5.5844471020231E-01  9.3557999654226E-01
   102  1.0100000000000E+00 -5.5419712904895E-01  9.9006003926384E-01
   103  1.0200000000000E+00 -5.4864738486483E-01  1.0428599168323E+00
   104  1.0300000000000E+00 -5.4187089399600E-01  1.0938048472249E+00
   105  1.0400000000000E+00 -5.3394479801047E-01  1.1427268754298E+00
   106  1.0500000000000E+00 -5.2494760002235E-01  1.1894653879158E+00
   107  1.0600000000000E+00 -5.1495880387106E-01  1.2338675987823E+00
   108  1.0700000000000E+00 -5.0405855773429E-01  1.2757890072908E+00
   109  1.0800000000000E+00 -4.9232730371125E-01  1.3150938266175E+00
   110  1.0900000000000E+00 -4.7984543486330E-01  1.3516553838083E+00
   111  1.1000000000000E+00 -4.6669296114208E-01  1.3853564910444E+00
   112  1.1100000000000E+00 -4.5294918557231E-01  1.4160897884488E+00
   113  1.1200000000000E+00 -4.3869239198621E-01  1.4437580587832E+00
   114  1.1300000000000E+00 -4.2399954553106E-01  1.4682745144913E+00
   115  1.1400000000000E+00 -4.0894600708951E-01  1.4895630576510E+00
   116  1.1500000000000E+00 -3.9360526266569E-01  1.5075585134938E+00
   117  1.1600000000000E+00 -3.7804866869833E-01  1.5222068382435E+00
   118  1.1700000000000E+00 -3.6234521416624E-01  1.5334653021137E+00
   119  1.1800000000000E+00 -3.4656130025162E-01  1.5413026483858E+00
   120  1.1900000000000E+00 -3.3076053822339E-01  1.5456992295694E+00
   121  1.2000000000000E+00 -3.1500356609681E-01  1.5466471217213E+00
   122  1.2100000000000E+00 -2.9934788451731E-01  1.5441502180710E+00
   123  1.2200000000000E+00 -2.8384771220663E-01  1.5382243031710E+00
   124  1.2300000000000E+00 -2.6855386119826E-01  1.5288971088551E+00
   125  1.2400000000000E+00 -2.5351363197743E-01  1.5162083533514E+00
   126  1.2500000000000E+00 -2.3877072852989E-01  1.5002097649614E+00
   127  1.2600000000000E+00 -2.2436519319223E-01  1.4809650917724E+00
   128  1.2700000000000E+00 -2.1033336108752E-01  1.4585500989312E+00
   129  1.2800000000000E+00 -1.9670783382219E-01  1.4330525550610E+00
   130  1.2900000000000E+00 -1.8351747201440E-01  1.4045722094588E+00
   131  1.3000000000000E+00 -1.7078740612263E-01  1.3732207617594E+00
   132  1.3100000000000E+00 -1.5853906494385E-01  1.3391218258030E+00
   133  1.3200000000000E+00 -1.4679022105632E-01  1.3024108894884E+00
   134  1.3300000000000E+00 -1.3555505239199E-01  1.2632352724364E+00
   135  1.3400000000000E+00 -1.2484421903868E-01  1.2217540833262E+00
   136  1.3500000000000E+00 -1.1466495429257E-01  1.1781381788031E+00
   137  1.3600000000000E+00 -1.0502116890840E-01  1.1325701258842E+00
   138  1.3700000000000E+00 -9.5913567427631E-02  1.0852441698128E+00
   139  1.3800000000000E+00 -8.7339775404627E-02  1.0363662093318E+00
   140  1.3900000000000E+00 -7.9294476297533E-02  9.8615378135379E-01
   141  1.4000000000000E+00 -7.1769556744742E-02  9.3483605701302E-01
   142  1.4100000000000E+00 -6.4754258909356E-02  8.8265385107602E-01
   143  1.4200000000000E+00 -5.8235338506035E-02  8.2985964793087E-01
   144  1.4300000000000E+00 -5.2197227176192E-02  7.7671764430291E-01
   145  1.4400000000000E+00 -4.6622199194818E-02  7.2350376872583E-01
   146  1.4500000000000E+00 -4.1490549474042E-02  6.7050538748210E-01
   147  1.4600000000000E+00 -3.6781054098426E-02  6.1801198995716E-01
   148  1.4700000000000E+00 -3.2471586829000E-02  5.6630269458464E-01
   149  1.4800000000000E+00 -2.8539470577275E-02  5.1564392767587E-01
   150  1.4900000000000E+00 -2.4961769975016E-02  4.6628895752008E-01
   151  1.5000000000000E+00 -2.1715575788678E-02  4.1847742273623E-01
   152  1.5100000000000E+00 -1.8778278742927E-02  3.7243489703424E-01
   153  1.5200000000000E+00 -1.6127831722499E-02  3.2837248593940E-01
   154  1.5300000000000E+00 -1.3742999200936E-02  2.8648645746871E-01
   155  1.5400000000000E+00 -1.1603592830719E-02  2.4695790798795E-01
   156  1.5500000000000E+00 -9.6906916728545E-03  2.0995247131998E-01
   157  1.5600000000000E+00 -7.9868523994264E-03  1.7561999202705E-01
   158  1.5700000000000E+00 -6.4762806551116E-03  1.4409450438665E-01
   159  1.5800000000000E+00 -5.1450462808906E-03  1.1549359493758E-01
   160  1.5900000000000E+00 -3.9826986618111E-03  8.9898429034481E-02
   161  1.6000000000000E+00 -2.9806215878903E-03  6.7375599864632E-02
   162  1.6100000000000E+00 -2.1296111337229E-03  4.8012577836386E-02
   163  1.6200000000000E+00 -1.4233017303117E-03  3.1875786960713E-02
   164  1.6300000000000E+00 -8.5800778992741E-04  1.9012898278962E-02
   165  1.6400000000000E+00 -4.3295709287807E-04  9.4561435621066E-03
   166  1.6500000000000E+00 -1.4831190745647E-04  3.1819628305086E-03
   167  1.6600000000000E+00 -1.6076716509477E-05  3.3701228567031E-04
   168  1.6700000000000E+00  3.0902074124886E-06 -6.4067921213724E-05
   169  1.6800000000000E+00 -1.0301046033981E-06  2.1603793417229E-05
   170  1.69  0. -0.
   171  1.70 -0.  0.
   172  1.71  0.  0.
   173  1.72  0.  0.
   174  1.73  0.  0.
   175  1.74  0.  0.
   176  1.75  0.  0.
   177  1.76  0.  0.
   178  1.77  0.  0.
   179  1.78  0.  0.
   180  1.79  0.  0.
   181  1.80  0.  0.
   182  1.81  0.  0.
   183  1.82  0.  0.
   184  1.83  0.  0.
   185  1.84  0.  0.
   186  1.85  0.  0.
   187  1.86  0.  0.
   188  1.87  0.  0.
   189  1.88  0.  0.
   190  1.89  0.  0.
   191  1.90  0.  0.
   192  1.91  0.  0.
   193  1.92  0.  0.
   194  1.93  0.  0.
   195  1.94  0.  0.
   196  1.95  0.  0.
   197  1.96  0.  0.
   198  1.97  0.  0.
   199  1.98  0.  0.
   200  1.99  0.  0.
   201  2.00  0.  0.
   202  2.01  0.  0.
   203  2.02  0.  0.
   204  2.03  0.  0.
   205  2.04  0.  0.
   206  2.05  0.  0.
   207  2.06  0.  0.
   208  2.07  0.  0.
   209  2.08  0.  0.
   210  2.09  0.  0.
   211  2.10  0.  0.
   212  2.11  0.  0.
   213  2.12  0.  0.
   214  2.13  0.  0.
   215  2.14  0.  0.
   216  2.15  0.  0.
   217  2.16  0.  0.
   218  2.17  0.  0.
   219  2.18  0.  0.
   220  2.19  0.  0.
   221  2.20  0.  0.
   222  2.21  0.  0.
   223  2.22  0.  0.
   224  2.23  0.  0.
   225  2.24  0.  0.
   226  2.25  0.  0.
   227  2.26  0.  0.
   228  2.27  0.  0.
   229  2.28  0.  0.
   230  2.29  0.  0.
   231  2.30  0.  0.
   232  2.31  0.  0.
   233  2.32  0.  0.
   234  2.33  0.  0.
   235  2.34  0.  0.
   236  2.35  0.  0.
   237  2.36  0.  0.
   238  2.37  0.  0.
   239  2.38  0.  0.
   240  2.39  0.  0.
   241  2.40  0.  0.
   242  2.41  0.  0.
   243  2.42  0.  0.
   244  2.43  0.  0.
   245  2.44  0.  0.
   246  2.45  0.  0.
   247  2.46  0.  0.
   248  2.47  0.  0.
   249  2.48  0.  0.
   250  2.49  0.  0.
   251  2.50  0.  0.
   252  2.51  0.  0.
   253  2.52  0.  0.
   254  2.53  0.  0.
   255  2.54  0.  0.
   256  2.55  0.  0.
   257  2.56  0.  0.
   258  2.57  0.  0.
   259  2.58  0.  0.
   260  2.59  0.  0.
   261  2.60  0.  0.
   262  2.61  0.  0.
   263  2.62  0.  0.
   264  2.63  0.  0.
   265  2.64  0.  0.
   266  2.65  0.  0.
   267  2.66  0.  0.
   268  2.67  0.  0.
   269  2.68  0.  0.
   270  2.69  0.  0.
   271  2.70  0.  0.
   272  2.71  0.  0.
   273  2.72  0.  0.
   274  2.73  0.  0.
   275  2.74  0.  0.
   276  2.75  0.  0.
   277  2.76  0.  0.
   278  2.77  0.  0.
   279  2.78  0.  0.
   280  2.79  0.  0.
   281  2.80  0.  0.
   282  2.81  0.  0.
   283  2.82  0.  0.
   284  2.83  0.  0.
   285  2.84  0.  0.
   286  2.85  0.  0.
   287  2.86  0.  0.
   288  2.87  0.  0.
   289  2.88  0.  0.
   290  2.89  0.  0.
   291  2.90  0.  0.
   292  2.91  0.  0.
   293  2.92  0.  0.
   294  2.93  0.  0.
   295  2.94  0.  0.
   296  2.95  0.  0.
   297  2.96  0.  0.
   298  2.97  0.  0.
   299  2.98  0.  0.
   300  2.99  0.  0.
   301  3.00  0.  0.
   302  3.01  0.  0.
   303  3.02  0.  0.
   304  3.03  0.  0.
   305  3.04  0.  0.
   306  3.05  0.  0.
   307  3.06  0.  0.
   308  3.07  0.  0.
   309  3.08  0.  0.
   310  3.09  0.  0.
   311  3.10  0.  0.
   312  3.11  0.  0.
   313  3.12  0.  0.
   314  3.13  0.  0.
   315  3.14  0.  0.
   316  3.15  0.  0.
   317  3.16  0.  0.
   318  3.17  0.  0.
   319  3.18  0.  0.
   320  3.19  0.  0.
   321  3.20  0.  0.
   322  3.21  0.  0.
   323  3.22  0.  0.
   324  3.23  0.  0.
   325  3.24  0.  0.
   326  3.25  0.  0.
   327  3.26  0.  0.
   328  3.27  0.  0.
   329  3.28  0.  0.
   330  3.29  0.  0.
   331  3.30  0.  0.
   332  3.31  0.  0.
   333  3.32  0.  0.
   334  3.33  0.  0.
   335  3.34  0.  0.
   336  3.35  0.  0.
   337  3.36  0.  0.
   338  3.37  0.  0.
   339  3.38  0.  0.
   340  3.39  0.  0.
   341  3.40  0.  0.
   342  3.41  0.  0.
   343  3.42  0.  0.
   344  3.43  0.  0.
   345  3.44  0.  0.
   346  3.45  0.  0.
   347  3.46  0.  0.
   348  3.47  0.  0.
   349  3.48  0.  0.
   350  3.49  0.  0.
   351  3.50  0.  0.
   352  3.51  0.  0.
   353  3.52  0.  0.
   354  3.53  0.  0.
   355  3.54  0.  0.
   356  3.55  0.  0.
   357  3.56  0.  0.
   358  3.57  0.  0.
   359  3.58  0.  0.
   360  3.59  0.  0.
   361  3.60  0.  0.
   362  3.61  0.  0.
   363  3.62  0.  0.
   364  3.63  0.  0.
   365  3.64  0.  0.
   366  3.65  0.  0.
   367  3.66  0.  0.
   368  3.67  0.  0.
   369  3.68  0.  0.
   370  3.69  0.  0.
   371  3.70  0.  0.
   372  3.71  0.  0.
   373  3.72  0.  0.
   374  3.73  0.  0.
   375  3.74  0.  0.
   376  3.75  0.  0.
   377  3.76  0.  0.
   378  3.77  0.  0.
   379  3.78  0.  0.
   380  3.79  0.  0.
   381  3.80  0.  0.
   382  3.81  0.  0.
   383  3.82  0.  0.
   384  3.83  0.  0.
   385  3.84  0.  0.
   386  3.85  0.  0.
   387  3.86  0.  0.
   388  3.87  0.  0.
   389  3.88  0.  0.
   390  3.89  0.  0.
   391  3.90  0.  0.
   392  3.91  0.  0.
   393  3.92  0.  0.
   394  3.93  0.  0.
   395  3.94  0.  0.
   396  3.95  0.  0.
   397  3.96  0.  0.
   398  3.97  0.  0.
   399  3.98  0.  0.
   400  3.99  0.  0.
   401  4.00  0.  0.
   402  4.01  0.  0.
   403  4.02  0.  0.
   404  4.03  0.  0.
   405  4.04  0.  0.
   406  4.05  0.  0.
   407  4.06  0.  0.
   408  4.07  0.  0.
   409  4.08  0.  0.
   410  4.09  0.  0.
   411  4.10  0.  0.
   412  4.11  0.  0.
   413  4.12  0.  0.
   414  4.13  0.  0.
   415  4.14  0.  0.
   416  4.15  0.  0.
   417  4.16  0.  0.
   418  4.17  0.  0.
   419  4.18  0.  0.
   420  4.19  0.  0.
   421  4.20  0.  0.
   422  4.21  0.  0.
   423  4.22  0.  0.
   424  4.23  0.  0.
   425  4.24  0.  0.
   426  4.25  0.  0.
   427  4.26  0.  0.
   428  4.27  0.  0.
   429  4.28  0.  0.
   430  4.29  0.  0.
   431  4.30  0.  0.
   432  4.31  0.  0.
   433  4.32  0.  0.
   434  4.33  0.  0.
   435  4.34  0.  0.
   436  4.35  0.  0.
   437  4.36  0.  0.
   438  4.37  0.  0.
   439  4.38  0.  0.
   440  4.39  0.  0.
   441  4.40  0.  0.
   442  4.41  0.  0.
   443  4.42  0.  0.
   444  4.43  0.  0.
   445  4.44  0.  0.
   446  4.45  0.  0.
   447  4.46  0.  0.
   448  4.47  0.  0.
   449  4.48  0.  0.
   450  4.49  0.  0.
   451  4.50  0.  0.
   452  4.51  0.  0.
   453  4.52  0.  0.
   454  4.53  0.  0.
   455  4.54  0.  0.
   456  4.55  0.  0.
   457  4.56  0.  0.
   458  4.57  0.  0.
   459  4.58  0.  0.
   460  4.59  0.  0.
   461  4.60  0.  0.
   462  4.61  0.  0.
   463  4.62  0.  0.
   464  4.63  0.  0.
   465  4.64  0.  0.
   466  4.65  0.  0.
   467  4.66  0.  0.
   468  4.67  0.  0.
   469  4.68  0.  0.
   470  4.69  0.  0.
   471  4.70  0.  0.
   472  4.71  0.  0.
   473  4.72  0.  0.
   474  4.73  0.  0.
   475  4.74  0.  0.
   476  4.75  0.  0.
   477  4.76  0.  0.
   478  4.77  0.  0.
   479  4.78  0.  0.
   480  4.79  0.  0.
   481  4.80  0.  0.
   482  4.81  0.  0.
   483  4.82  0.  0.
   484  4.83  0.  0.
   485  4.84  0.  0.
   486  4.85  0.  0.
   487  4.86  0.  0.
   488  4.87  0.  0.
   489  4.88  0.  0.
   490  4.89  0.  0.
   491  4.90  0.  0.
   492  4.91  0.  0.
   493  4.92  0.  0.
   494  4.93  0.  0.
   495  4.94  0.  0.
   496  4.95  0.  0.
   497  4.96  0.  0.
   498  4.97  0.  0.
   499  4.98  0.  0.
   500  4.99  0.  0.
   501  5.00  0.  0.
   502  5.01  0.  0.
   503  5.02  0.  0.
   504  5.03  0.  0.
   505  5.04  0.  0.
   506  5.05  0.  0.
   507  5.06  0.  0.
   508  5.07  0.  0.
   509  5.08  0.  0.
   510  5.09  0.  0.
   511  5.10  0.  0.
   512  5.11  0.  0.
   513  5.12  0.  0.
   514  5.13  0.  0.
   515  5.14  0.  0.
   516  5.15  0.  0.
   517  5.16  0.  0.
   518  5.17  0.  0.
   519  5.18  0.  0.
   520  5.19  0.  0.
   521  5.20  0.  0.
   522  5.21  0.  0.
   523  5.22  0.  0.
   524  5.23  0.  0.
   525  5.24  0.  0.
   526  5.25  0.  0.
   527  5.26  0.  0.
   528  5.27  0.  0.
   529  5.28  0.  0.
   530  5.29  0.  0.
   531  5.30  0.  0.
   532  5.31  0.  0.
   533  5.32  0.  0.
   534  5.33  0.  0.
   535  5.34  0.  0.
   536  5.35  0.  0.
   537  5.36  0.  0.
   538  5.37  0.  0.
   539  5.38  0.  0.
   540  5.39  0.  0.
   541  5.40  0.  0.
   542  5.41  0.  0.
   543  5.42  0.  0.
   544  5.43  0.  0.
   545  5.44  0.  0.
   546  5.45  0.  0.
   547  5.46  0.  0.
   548  5.47  0.  0.
   549  5.48  0.  0.
   550  5.49  0.  0.
   551  5.50  0.  0.
   552  5.51  0.  0.
   553  5.52  0.  0.
   554  5.53  0.  0.
   555  5.54  0.  0.
   556  5.55  0.  0.
   557  5.56  0.  0.
   558  5.57  0.  0.
   559  5.58  0.  0.
   560  5.59  0.  0.
   561  5.60  0.  0.
   562  5.61  0.  0.
   563  5.62  0.  0.
   564  5.63  0.  0.
   565  5.64  0.  0.
   566  5.65  0.  0.
   567  5.66  0.  0.
   568  5.67  0.  0.
   569  5.68  0.  0.
   570  5.69  0.  0.
   571  5.70  0.  0.
   572  5.71  0.  0.
   573  5.72  0.  0.
   574  5.73  0.  0.
   575  5.74  0.  0.
   576  5.75  0.  0.
   577  5.76  0.  0.
   578  5.77  0.  0.
   579  5.78  0.  0.
   580  5.79  0.  0.
   581  5.80  0.  0.
   582  5.81  0.  0.
   583  5.82  0.  0.
   584  5.83  0.  0.
   585  5.84  0.  0.
   586  5.85  0.  0.
   587  5.86  0.  0.
   588  5.87  0.  0.
   589  5.88  0.  0.
   590  5.89  0.  0.
   591  5.90  0.  0.
   592  5.91  0.  0.
   593  5.92  0.  0.
   594  5.93  0.  0.
   595  5.94  0.  0.
   596  5.95  0.  0.
   597  5.96  0.  0.
   598  5.97  0.  0.
   599  5.98  0.  0.
   600  5.99  0.  0.
   1                        -1.3984302797532E+00 -4.7907403136589E-01
     1  0.0000000000000E+00  3.1633169868261E-10 -1.5216603836340E-09
     2  1.0000000000000E-02  2.2311498345480E-04 -6.3319980943050E-05
     3  2.0000000000000E-02  8.9277808577879E-04 -2.5174428321417E-04
     4  3.0000000000000E-02  2.0099490849088E-03 -5.6071024568622E-04
     5  4.0000000000000E-02  3.5762451659203E-03 -9.8276009179557E-04
     6  5.0000000000000E-02  5.5939666095132E-03 -1.5077578638733E-03
     7  6.0000000000000E-02  8.0661314796118E-03 -2.1231870768381E-03
     8  7.0000000000000E-02  1.0996518062440E-02 -2.8145231603225E-03
     9  8.0000000000000E-02  1.4389713493103E-02 -3.5656732366470E-03
    10  9.0000000000000E-02  1.8251166719018E-02 -4.3594743881457E-03
    11  1.0000000000000E-01  2.2587243697361E-02 -5.1782403224822E-03
    12  1.1000000000000E-01  2.7405282511774E-02 -6.0043452731679E-03
    13  1.2000000000000E-01  3.2713645925476E-02 -6.8208330905313E-03
    14  1.3000000000000E-01  3.8521768768047E-02 -7.6120388046895E-03
    15  1.4000000000000E-01  4.4840197483704E-02 -8.3642094866850E-03
    16  1.5000000000000E-01  5.1680619152321E-02 -9.0661110076858E-03
    17  1.6000000000000E-01  5.9055877331803E-02 -9.7096073036636E-03
    18  1.7000000000000E-01  6.6979972162033E-02 -1.0290198996600E-02
    19  1.8000000000000E-01  7.5468042315694E-02 -1.0807508699948E-02
    20  1.9000000000000E-01  8.4536326578734E-02 -1.1265701041395E-02
    21  2.0000000000000E-01  9.4202103090293E-02 -1.1673826359113E-02
    22  2.1000000000000E-01  1.0448360456555E-01 -1.2046078156378E-02
    23  2.2000000000000E-01  1.1539990816127E-01 -1.2401955716769E-02
    24  2.3000000000000E-01  1.2697079901779E-01 -1.2766324768714E-02
    25  2.4000000000000E-01  1.3921660691760E-01 -1.3169370721409E-02
    26  2.5000000000000E-01  1.5215801593340E-01 -1.3646440748808E-02
    27  2.6000000000000E-01  1.6581584739113E-01 -1.4237772847939E-02
    28  2.7000000000000E-01  1.8021081693865E-01 -1.4988111912071E-02
    29  2.8000000000000E-01  1.9536326698195E-01 -1.5946214809839E-02
    30  2.9000000000000E-01  2.1129287621955E-01 -1.7164248415025E-02
    31  3.0000000000000E-01  2.2801834846539E-01 -1.8697086458756E-02
    32  3.1000000000000E-01  2.4555708339332E-01 -2.0601512943771E-02
    33  3.2000000000000E-01  2.6392483225413E-01 -2.2935341638834E-02
    34  3.3000000000000E-01  2.8313534200294E-01 -2.5756462830695E-02
    35  3.4000000000000E-01  3.0319999162328E-01 -2.9121830022715E-02
    36  3.5000000000000E-01  3.2412742473771E-01 -3.3086400607446E-02
    37  3.6000000000000E-01  3.4592318284871E-01 -3.7702045681560E-02
    38  3.7000000000000E-01  3.6858934375156E-01 -4.3016445093897E-02
    39  3.8000000000000E-01  3.9212416979977E-01 -4.9071984504149E-02
    40  3.9000000000000E-01  4.1652177077906E-01 -5.5904671665882E-02
    41  4.0000000000000E-01  4.4177178615613E-01 -6.3543089322850E-02
    42  4.1000000000000E-01  4.6785909141088E-01 -7.2007402015155E-02
    43  4.2000000000000E-01  4.9476353303613E-01 -8.1308433729208E-02
    44  4.3000000000000E-01  5.2245969659602E-01 -9.1446832694134E-02
    45  4.4000000000000E-01  5.5091671197568E-01 -1.0241233873277E-01
    46  4.5000000000000E-01  5.8009809963245E-01 -1.1418316742803E-01
    47  4.6000000000000E-01  6.0996166127603E-01 -1.2672552397811E-01
    48  4.7000000000000E-01  6.4045941796591E-01 -1.3999325800584E-01
    49  4.8000000000000E-01  6.7153759812483E-01 -1.5392766877799E-01
    50  4.9000000000000E-01  7.0313667743176E-01 -1.6845746830578E-01
    51  5.0000000000000E-01  7.3519147198517E-01 -1.8349890766494E-01
    52  5.1000000000000E-01  7.6763128552325E-01 -1.9895606962278E-01
    53  5.2000000000000E-01  8.0038011086087E-01 -2.1472132832340E-01
    54  5.3000000000000E-01  8.3335688506178E-01 -2.3067597439475E-01
    55  5.4000000000000E-01  8.6647579721726E-01 -2.4669100143715E-01
    56  5.5000000000000E-01  8.9964664705826E-01 -2.6262804746969E-01
    57  5.6000000000000E-01  9.3277525199573E-01 -2.7834048258279E-01
    58  5.7000000000000E-01  9.6576389957289E-01 -2.9367463180964E-01
    59  5.8000000000000E-01  9.9851184173118E-01 -3.0847112012020E-01
    60  5.9000000000000E-01  1.0309158267481E+00 -3.2256632449174E-01
    61  6.0000000000000E-01  1.0628706642072E+00 -3.3579391625225E-01
    62  6.1000000000000E-01  1.0942698179170E+00 -3.4798647535464E-01
    63  6.2000000000000E-01  1.1250060213093E+00 -3.5897715694699E-01
    64  6.3000000000000E-01  1.1549719095301E+00 -3.6860138958021E-01
    65  6.4000000000000E-01  1.1840606621899E+00 -3.7669858365628E-01
    66  6.5000000000000E-01  1.2121666505636E+00 -3.8311382828373E-01
    67  6.6000000000000E-01  1.2391860829397E+00 -3.8769955458204E-01
    68  6.7000000000000E-01  1.2650176418011E+00 -3.9031714366764E-01
    69  6.8000000000000E-01  1.2895631065858E+00 -3.9083845806386E-01
    70  6.9000000000000E-01  1.3127279559244E+00 -3.8914727609921E-01
    71  7.0000000000000E-01  1.3344219434726E+00 -3.8514060998714E-01
    72  7.1000000000000E-01  1.3545596417614E+00 -3.7872988969866E-01
    73  7.2000000000000E-01  1.3730609488604E+00 -3.6984199643290E-01
    74  7.3000000000000E-01  1.3898515530920E+00 -3.5842013143439E-01
    75  7.4000000000000E-01  1.4048633515356E+00 -3.4442450807513E-01
    76  7.5000000000000E-01  1.4180348186230E+00 -3.2783285748386E-01
    77  7.6000000000000E-01  1.4293113217299E+00 -3.0864074053070E-01
    78  7.7000000000000E-01  1.4386453813139E+00 -2.8686166162720E-01
    79  7.8000000000000E-01  1.4459968738284E+00 -2.6252698254092E-01
    80  7.9000000000000E-01  1.4513331763345E+00 -2.3568563720993E-01
    81  8.0000000000000E-01  1.4546292524438E+00 -2.0640365133586E-01
    82  8.1000000000000E-01  1.4558676799342E+00 -1.7476347329064E-01
    83  8.2000000000000E-01  1.4550386210808E+00 -1.4086312555284E-01
    84  8.3000000000000E-01  1.4521397374255E+00 -1.0481518845117E-01
    85  8.4000000000000E-01  1.4471760513643E+00 -6.6745630397847E-02
    86  8.5000000000000E-01  1.4401597575438E+00 -2.6792501004323E-02
    87  8.6000000000000E-01  1.4311099876313E+00  1.4895494548423E-02
    88  8.7000000000000E-01  1.4200525325349E+00  5.8160519793882E-02
    89  8.8000000000000E-01  1.4070195266021E+00  1.0283720839919E-01
    90  8.9000000000000E-01  1.3920490987110E+00  1.4875432008506E-01
    91  9.0000000000000E-01  1.3751849954768E+00  1.9573642763093E-01
    92  9.1000000000000E-01  1.3564761820266E+00  2.4360561111618E-01
    93  9.2000000000000E-01  1.3359764259472E+00  2.9218313547215E-01
    94  9.3000000000000E-01  1.3137438700735E+00  3.4129108770546E-01
    95  9.4000000000000E-01  1.2898405997699E+00  3.9075395079866E-01
    96  9.5000000000000E-01  1.2643322102504E+00  4.4040009229381E-01
    97  9.6000000000000E-01  1.2372873793010E+00  4.9006314690494E-01
    98  9.7000000000000E-01  1.2087774505027E+00  5.3958327416962E-01
    99  9.8000000000000E-01  1.1788760317138E+00  5.8880827411487E-01
   100  9.9000000000000E-01  1.1476586131618E+00  6.3759454615100E-01
   101  1.0000000000000E+00  1.1152022090229E+00  6.8580787888697E-01
   102  1.0100000000000E+00  1.0815850258396E+00  7.3332406124671E-01
   103  1.0200000000000E+00  1.0468861605515E+00  7.8002930811681E-01
   104  1.0300000000000E+00  1.0111853303009E+00  8.2582049673082E-01
   105  1.0400000000000E+00  9.7456263553274E-01  8.7060521305126E-01
   106  1.0500000000000E+00  9.3709835724842E-01  9.1430161049531E-01
   107  1.0600000000000E+00  8.9887278860444E-01  9.5683808642270E-01
   108  1.0700000000000E+00  8.5996610038025E-01  9.9815278481686E-01
   109  1.0800000000000E+00  8.2045823918932E-01  1.0381929364864E+00
   110  1.0900000000000E+00  7.8042885667732E-01  1.0769140508652E+00
   111  1.1000000000000E+00  7.3995726735838E-01  1.1142789760319E+00
   112  1.1100000000000E+00  6.9912243218907E-01  1.1502568458787E+00
   113  1.1200000000000E+00  6.5800296448251E-01  1.1848219353870E+00
   114  1.1300000000000E+00  6.1667715432824E-01  1.2179524466824E+00
   115  1.1400000000000E+00  5.7522300731490E-01  1.2496292499169E+00
   116  1.1500000000000E+00  5.3371829305966E-01  1.2798346040323E+00
   117  1.1600000000000E+00  4.9224059883381E-01  1.3085508830784E+00
   118  1.1700000000000E+00  4.5086738344421E-01  1.3357593339840E+00
   119  1.1800000000000E+00  4.0967602648620E-01  1.3614388914877E+00
   120  1.1900000000000E+00  3.6874386812728E-01  1.3855650753436E+00
   121  1.2000000000000E+00  3.2814823471184E-01  1.4081089939183E+00
   122  1.2100000000000E+00  2.8796644569484E-01  1.4290364768970E+00
   123  1.2200000000000E+00  2.4827579771108E-01  1.4483073580598E+00