Mn    ONCVPSP-4.0.1  r_core=   1.84404   2.30089   1.77903
     25.0000     15.0000      230118    zatom,zion,pspd
     8       2   2     4   600     0    pspcod,pspxc,lmax,lloc,mmax,r2well
  5.99000000  4.00000000  0.00000000    rchrg fchrg qchrg
     2     2     2     0     0    nproj
     1     1           extension_switch
   0                         3.1442683900744E+00 -1.5448952662522E-01
     1  0.0000000000000E+00 -3.0957458818648E-11 -5.1938175982258E-11
     2  1.0000000000000E-02  7.9047027256025E-02  3.7641050459357E-02
     3  2.0000000000000E-02  1.5788982037002E-01  7.5145665021917E-02
     4  3.0000000000000E-02  2.3632478894283E-01  1.1237807321439E-01
     5  4.0000000000000E-02  3.1414962780450E-01  1.4920383227261E-01
     6  5.0000000000000E-02  3.9116395399543E-01  1.8549048316448E-01
     7  6.0000000000000E-02  4.6716993700913E-01  2.2110819725150E-01
     8  7.0000000000000E-02  5.4197292008671E-01  2.5593041052934E-01
     9  8.0000000000000E-02  6.1538203038420E-01  2.8983444243974E-01
    10  9.0000000000000E-02  6.8721077587249E-01  3.2270209631109E-01
    11  1.0000000000000E-01  7.5727762687545E-01  3.5442023856187E-01
    12  1.1000000000000E-01  8.2540658020564E-01  3.8488135389153E-01
    13  1.2000000000000E-01  8.9142770391754E-01  4.1398407378483E-01
    14  1.3000000000000E-01  9.5517766076612E-01  4.4163367576984E-01
    15  1.4000000000000E-01  1.0165002085335E+00  4.6774255099520E-01
    16  1.5000000000000E-01  1.0752466754676E+00  4.9223063782889E-01
    17  1.6000000000000E-01  1.1312764091654E+00  5.1502581932878E-01
    18  1.7000000000000E-01  1.1844571973273E+00  5.3606428259270E-01
    19  1.8000000000000E-01  1.2346656589089E+00  5.5529083816447E-01
    20  1.9000000000000E-01  1.2817876043046E+00  5.7265919784936E-01
    21  2.0000000000000E-01  1.3257183633059E+00  5.8813220947892E-01
    22  2.1000000000000E-01  1.3663630796966E+00  6.0168204735975E-01
    23  2.2000000000000E-01  1.4036369714681E+00  6.1329035734267E-01
    24  2.3000000000000E-01  1.4374655557604E+00  6.2294835565796E-01
    25  2.4000000000000E-01  1.4677848377700E+00  6.3065688087676E-01
    26  2.5000000000000E-01  1.4945414629929E+00  6.3642639857931E-01
    27  2.6000000000000E-01  1.5176928323117E+00  6.4027695853488E-01
    28  2.7000000000000E-01  1.5372071795713E+00  6.4223810442567E-01
    29  2.8000000000000E-01  1.5530636114314E+00  6.4234873637764E-01
    30  2.9000000000000E-01  1.5652521094247E+00  6.4065692679215E-01
    31  3.0000000000000E-01  1.5737734942930E+00  6.3721969020419E-01
    32  3.1000000000000E-01  1.5786393528191E+00  6.3210270812379E-01
    33  3.2000000000000E-01  1.5798719275146E+00  6.2538001004609E-01
    34  3.3000000000000E-01  1.5775039696677E+00  6.1713361204110E-01
    35  3.4000000000000E-01  1.5715785563981E+00  6.0745311455589E-01
    36  3.5000000000000E-01  1.5621488725032E+00  5.9643526127725E-01
    37  3.6000000000000E-01  1.5492779580225E+00  5.8418346111233E-01
    38  3.7000000000000E-01  1.5330384225761E+00  5.7080727554567E-01
    39  3.8000000000000E-01  1.5135121276693E+00  5.5642187382287E-01
    40  3.9000000000000E-01  1.4907898382778E+00  5.4114745859283E-01
    41  4.0000000000000E-01  1.4649708451539E+00  5.2510866481001E-01
    42  4.1000000000000E-01  1.4361625594067E+00  5.0843393485596E-01
    43  4.2000000000000E-01  1.4044800810222E+00  4.9125487298243E-01
    44  4.3000000000000E-01  1.3700457430926E+00  4.7370558230699E-01
    45  4.4000000000000E-01  1.3329886336188E+00  4.5592198770518E-01
    46  4.5000000000000E-01  1.2934440968430E+00  4.3804114803885E-01
    47  4.6000000000000E-01  1.2515532161440E+00  4.2020056123924E-01
    48  4.7000000000000E-01  1.2074622806049E+00  4.0253746582275E-01
    49  4.8000000000000E-01  1.1613222374240E+00  3.8518814245946E-01
    50  4.9000000000000E-01  1.1132881323916E+00  3.6828721923502E-01
    51  5.0000000000000E-01  1.0635185407046E+00  3.5196698424832E-01
    52  5.1000000000000E-01  1.0121749904195E+00  3.3635670916906E-01
    53  5.2000000000000E-01  9.5942138087232E-01  3.2158198733885E-01
    54  5.3000000000000E-01  9.0542339840481E-01  3.0776408994032E-01
    55  5.4000000000000E-01  8.5034793174054E-01  2.9501934367741E-01
    56  5.5000000000000E-01  7.9436248934632E-01  2.8345853330929E-01
    57  5.6000000000000E-01  7.3763462109527E-01  2.7318633225864E-01
    58  5.7000000000000E-01  6.8033134651916E-01  2.6430076437467E-01
    59  5.8000000000000E-01  6.2261859189752E-01  2.5689269977067E-01
    60  5.9000000000000E-01  5.6466063838062E-01  2.5104538747813E-01
    61  6.0000000000000E-01  5.0661958328287E-01  2.4683402746321E-01
    62  6.1000000000000E-01  4.4865481661263E-01  2.4432538433969E-01
    63  6.2000000000000E-01  3.9092251482380E-01  2.4357744488408E-01
    64  6.3000000000000E-01  3.3357515368552E-01  2.4463912121817E-01
    65  6.4000000000000E-01  2.7676104206727E-01  2.4755000126866E-01
    66  6.5000000000000E-01  2.2062387833031E-01  2.5234014784915E-01
    67  6.6000000000000E-01  1.6530233090126E-01  2.5902994743361E-01
    68  6.7000000000000E-01  1.1092964448239E-01  2.6763000940799E-01
    69  6.8000000000000E-01  5.7633273223855E-02  2.7814111629705E-01
    70  6.9000000000000E-01  5.5345420494955E-03  2.9055422516950E-01
    71  7.0000000000000E-01 -4.5251662812419E-02  3.0485052012877E-01
    72  7.1000000000000E-01 -9.4617173185841E-02  3.2100151549925E-01
    73  7.2000000000000E-01 -1.4246078743122E-01  3.3896920902296E-01
    74  7.3000000000000E-01 -1.8868848744828E-01  3.5870628408892E-01
    75  7.4000000000000E-01 -2.3321362374068E-01  3.8015635973087E-01
    76  7.5000000000000E-01 -2.7595706824000E-01  4.0325428684898E-01
    77  7.6000000000000E-01 -3.1684733474049E-01  4.2792648884109E-01
    78  7.7000000000000E-01 -3.5582066694978E-01  4.5409134456912E-01
    79  7.8000000000000E-01 -3.9282109431298E-01  4.8165961133976E-01
    80  7.9000000000000E-01 -4.2780045591794E-01  5.1053488534666E-01
    81  8.0000000000000E-01 -4.6071839293594E-01  5.4061409680514E-01
    82  8.1000000000000E-01 -4.9154231019588E-01  5.7178803681286E-01
    83  8.2000000000000E-01 -5.2024730762811E-01  6.0394191279097E-01
    84  8.3000000000000E-01 -5.4681608244715E-01  6.3695592920220E-01
    85  8.4000000000000E-01 -5.7123880306973E-01  6.7070589010565E-01
    86  8.5000000000000E-01 -5.9351295588437E-01  7.0506381999525E-01
    87  8.6000000000000E-01 -6.1364316610146E-01  7.3989859927807E-01
    88  8.7000000000000E-01 -6.3164099401725E-01  7.7507661068392E-01
    89  8.8000000000000E-01 -6.4752470812103E-01  8.1046239285672E-01
    90  8.9000000000000E-01 -6.6131903656155E-01  8.4591929736325E-01
    91  9.0000000000000E-01 -6.7305489856579E-01  8.8131014536498E-01
    92  9.1000000000000E-01 -6.8276911747070E-01  9.1649788023458E-01
    93  9.2000000000000E-01 -6.9050411708534E-01  9.5134621245995E-01
    94  9.3000000000000E-01 -6.9630760314757E-01  9.8572025326458E-01
    95  9.4000000000000E-01 -7.0023223167526E-01  1.0194871334838E+00
    96  9.5000000000000E-01 -7.0233526603758E-01  1.0525166043704E+00
    97  9.6000000000000E-01 -7.0267822458587E-01  1.0846816171606E+00
    98  9.7000000000000E-01 -7.0132652068795E-01  1.1158588784089E+00
    99  9.8000000000000E-01 -6.9834909700242E-01  1.1459293783020E+00
   100  9.9000000000000E-01 -6.9381805581263E-01  1.1747788893760E+00
   101  1.0000000000000E+00 -6.8780828721238E-01  1.2022984333022E+00
   102  1.0100000000000E+00 -6.8039709689808E-01  1.2283847136536E+00
   103  1.0200000000000E+00 -6.7166383527562E-01  1.2529405128326E+00
   104  1.0300000000000E+00 -6.6168952953401E-01  1.2758750516185E+00
   105  1.0400000000000E+00 -6.5055652027361E-01  1.2971043100792E+00
   106  1.0500000000000E+00 -6.3834810420441E-01  1.3165513088911E+00
   107  1.0600000000000E+00 -6.2514818434968E-01  1.3341463504097E+00
   108  1.0700000000000E+00 -6.1104092910383E-01  1.3498272191433E+00
   109  1.0800000000000E+00 -5.9611044140029E-01  1.3635393415865E+00
   110  1.0900000000000E+00 -5.8044043914699E-01  1.3752359056808E+00
   111  1.1000000000000E+00 -5.6411394798393E-01  1.3848779404700E+00
   112  1.1100000000000E+00 -5.4721300731033E-01  1.3924343568212E+00
   113  1.1200000000000E+00 -5.2981839041875E-01  1.3978819503727E+00
   114  1.1300000000000E+00 -5.1200933946073E-01  1.4012053681525E+00
   115  1.1400000000000E+00 -4.9386331585452E-01  1.4023970405844E+00
   116  1.1500000000000E+00 -4.7545576663022E-01  1.4014570808570E+00
   117  1.1600000000000E+00 -4.5685990709263E-01  1.3983931538727E+00
   118  1.1700000000000E+00 -4.3814652006742E-01  1.3932203172234E+00
   119  1.1800000000000E+00 -4.1938377188381E-01  1.3859608368449E+00
   120  1.1900000000000E+00 -4.0063704513558E-01  1.3766439801939E+00
   121  1.2000000000000E+00 -3.8196878815478E-01  1.3653057899559E+00
   122  1.2100000000000E+00 -3.6343838102817E-01  1.3519888414386E+00
   123  1.2200000000000E+00 -3.4510201788623E-01  1.3367419869292E+00
   124  1.2300000000000E+00 -3.2701260509947E-01  1.3196200903867E+00
   125  1.2400000000000E+00 -3.0921967492686E-01  1.3006837559201E+00
   126  1.2500000000000E+00 -2.9176931407718E-01  1.2799990535449E+00
   127  1.2600000000000E+00 -2.7470410656629E-01  1.2576372457369E+00
   128  1.2700000000000E+00 -2.5806309018254E-01  1.2336745182980E+00
   129  1.2800000000000E+00 -2.4188172580850E-01  1.2081917190191E+00
   130  1.2900000000000E+00 -2.2619187879052E-01  1.1812741075747E+00
   131  1.3000000000000E+00 -2.1102181149884E-01  1.1530111200012E+00
   132  1.3100000000000E+00 -1.9639618617960E-01  1.1234961510139E+00
   133  1.3200000000000E+00 -1.8233607716659E-01  1.0928263572896E+00
   134  1.3300000000000E+00 -1.6885899149517E-01  1.0611024846933E+00
   135  1.3400000000000E+00 -1.5597889694318E-01  1.0284287222652E+00
   136  1.3500000000000E+00 -1.4370625651360E-01  9.9491258558815E-01
   137  1.3600000000000E+00 -1.3204806837174E-01  9.6066483195786E-01
   138  1.3700000000000E+00 -1.2100791025504E-01  9.2579940955018E-01
   139  1.3800000000000E+00 -1.1058598738600E-01  8.9043344254488E-01
   140  1.3900000000000E+00 -1.0077918293854E-01  8.5468725391418E-01
   141  1.4000000000000E+00 -9.1581110133953E-02  8.1868442732240E-01
   142  1.4100000000000E+00 -8.2982164862325E-02  7.8255191128178E-01
   143  1.4200000000000E+00 -7.4969581256905E-02  7.4642013532917E-01
   144  1.4300000000000E+00 -6.7527472199300E-02  7.1042330421953E-01
   145  1.4400000000000E+00 -6.0637171342901E-02  6.7469683467936E-01
   146  1.4500000000000E+00 -5.4278238257101E-02  6.3936894714137E-01
   147  1.4600000000000E+00 -4.8429068864754E-02  6.0455687541319E-01
   148  1.4700000000000E+00 -4.3067101673398E-02  5.7036713362563E-01
   149  1.4800000000000E+00 -3.8169027616834E-02  5.3689567839511E-01
   150  1.4900000000000E+00 -3.3710985117409E-02  5.0422814933948E-01
   151  1.5000000000000E+00 -2.9668744435176E-02  4.7244014137489E-01
   152  1.5100000000000E+00 -2.6017880931689E-02  4.4159750896107E-01
   153  1.5200000000000E+00 -2.2733937037215E-02  4.1175670119571E-01
   154  1.5300000000000E+00 -1.9792572832157E-02  3.8296512599903E-01
   155  1.5400000000000E+00 -1.7169705227721E-02  3.5526154143780E-01
   156  1.5500000000000E+00 -1.4841635802140E-02  3.2867647206049E-01
   157  1.5600000000000E+00 -1.2785167416760E-02  3.0323264795287E-01
   158  1.5700000000000E+00 -1.0977709800696E-02  2.7894546407811E-01
   159  1.5800000000000E+00 -9.3973743529984E-03  2.5582345733657E-01
   160  1.5900000000000E+00 -8.0230584673110E-03  2.3386879867009E-01
   161  1.6000000000000E+00 -6.8345197355917E-03  2.1307779744217E-01
   162  1.6100000000000E+00 -5.8124404339676E-03  1.9344141525222E-01
   163  1.6200000000000E+00 -4.9384827355896E-03  1.7494578628617E-01
   164  1.6300000000000E+00 -4.1953351318552E-03  1.5757274127019E-01
   165  1.6400000000000E+00 -3.5667505746524E-03  1.4130033207593E-01
   166  1.6500000000000E+00 -3.0375768781886E-03  1.2610335402885E-01
   167  1.6600000000000E+00 -2.5937799395160E-03  1.1195386299013E-01
   168  1.6700000000000E+00 -2.2224603519786E-03  9.8821684322638E-02
   169  1.6800000000000E+00 -1.9118639955628E-03  8.6674910907857E-02
   170  1.6900000000000E+00 -1.6513871925713E-03  7.5480387455178E-02
   171  1.7000000000000E+00 -1.4315770162519E-03  6.5204178436367E-02
   172  1.7100000000000E+00 -1.2441273341648E-03  5.5812017085902E-02
   173  1.7200000000000E+00 -1.0818703207974E-03  4.7269741529858E-02
   174  1.7300000000000E+00 -9.3877253956238E-04  3.9543630362263E-02
   175  1.7400000000000E+00 -8.0990027259728E-04  3.2600982974410E-02
   176  1.7500000000000E+00 -6.9143875878817E-04  2.6410181251233E-02
   177  1.7600000000000E+00 -5.8137407704300E-04  2.0933695490221E-02
   178  1.7700000000000E+00 -4.7900860858608E-04  1.6132568972726E-02
   179  1.7800000000000E+00 -3.8286195920429E-04  1.1988367186624E-02
   180  1.7900000000000E+00 -2.9269449740508E-04  8.4835584298109E-03
   181  1.8000000000000E+00 -2.0942184365482E-04  5.6021073613808E-03
   182  1.8100000000000E+00 -1.3509149613588E-04  3.3295161836098E-03
   183  1.8200000000000E+00 -7.2873684547484E-05  1.6535040589339E-03
   184  1.8300000000000E+00 -2.6650014150294E-05  5.5751926179512E-04
   185  1.8400000000000E+00 -3.2959671742983E-06  6.3057072329209E-05
   186  1.8500000000000E+00  8.2623279200315E-07 -1.5213899776597E-05
   187  1.8600000000000E+00 -2.6672227233532E-07  5.1209427918138E-06
   188  1.87  0. -0.
   189  1.88 -0. -0.
   190  1.89  0.  0.
   191  1.90  0.  0.
   192  1.91  0.  0.
   193  1.92  0.  0.
   194  1.93  0.  0.
   195  1.94  0.  0.
   196  1.95  0.  0.
   197  1.96  0.  0.
   198  1.97  0.  0.
   199  1.98  0.  0.
   200  1.99  0.  0.
   201  2.00  0.  0.
   202  2.01  0.  0.
   203  2.02  0.  0.
   204  2.03  0.  0.
   205  2.04  0.  0.
   206  2.05  0.  0.
   207  2.06  0.  0.
   208  2.07  0.  0.
   209  2.08  0.  0.
   210  2.09  0.  0.
   211  2.10  0.  0.
   212  2.11  0.  0.
   213  2.12  0.  0.
   214  2.13  0.  0.
   215  2.14  0.  0.
   216  2.15  0.  0.
   217  2.16  0.  0.
   218  2.17  0.  0.
   219  2.18  0.  0.
   220  2.19  0.  0.
   221  2.20  0.  0.
   222  2.21  0.  0.
   223  2.22  0.  0.
   224  2.23  0.  0.
   225  2.24  0.  0.
   226  2.25  0.  0.
   227  2.26  0.  0.
   228  2.27  0.  0.
   229  2.28  0.  0.
   230  2.29  0.  0.
   231  2.30  0.  0.
   232  2.31  0.  0.
   233  2.32  0.  0.
   234  2.33  0.  0.
   235  2.34  0.  0.
   236  2.35  0.  0.
   237  2.36  0.  0.
   238  2.37  0.  0.
   239  2.38  0.  0.
   240  2.39  0.  0.
   241  2.40  0.  0.
   242  2.41  0.  0.
   243  2.42  0.  0.
   244  2.43  0.  0.
   245  2.44  0.  0.
   246  2.45  0.  0.
   247  2.46  0.  0.
   248  2.47  0.  0.
   249  2.48  0.  0.
   250  2.49  0.  0.
   251  2.50  0.  0.
   252  2.51  0.  0.
   253  2.52  0.  0.
   254  2.53  0.  0.
   255  2.54  0.  0.
   256  2.55  0.  0.
   257  2.56  0.  0.
   258  2.57  0.  0.
   259  2.58  0.  0.
   260  2.59  0.  0.
   261  2.60  0.  0.
   262  2.61  0.  0.
   263  2.62  0.  0.
   264  2.63  0.  0.
   265  2.64  0.  0.
   266  2.65  0.  0.
   267  2.66  0.  0.
   268  2.67  0.  0.
   269  2.68  0.  0.
   270  2.69  0.  0.
   271  2.70  0.  0.
   272  2.71  0.  0.
   273  2.72  0.  0.
   274  2.73  0.  0.
   275  2.74  0.  0.
   276  2.75  0.  0.
   277  2.76  0.  0.
   278  2.77  0.  0.
   279  2.78  0.  0.
   280  2.79  0.  0.
   281  2.80  0.  0.
   282  2.81  0.  0.
   283  2.82  0.  0.
   284  2.83  0.  0.
   285  2.84  0.  0.
   286  2.85  0.  0.
   287  2.86  0.  0.
   288  2.87  0.  0.
   289  2.88  0.  0.
   290  2.89  0.  0.
   291  2.90  0.  0.
   292  2.91  0.  0.
   293  2.92  0.  0.
   294  2.93  0.  0.
   295  2.94  0.  0.
   296  2.95  0.  0.
   297  2.96  0.  0.
   298  2.97  0.  0.
   299  2.98  0.  0.
   300  2.99  0.  0.
   301  3.00  0.  0.
   302  3.01  0.  0.
   303  3.02  0.  0.
   304  3.03  0.  0.
   305  3.04  0.  0.
   306  3.05  0.  0.
   307  3.06  0.  0.
   308  3.07  0.  0.
   309  3.08  0.  0.
   310  3.09  0.  0.
   311  3.10  0.  0.
   312  3.11  0.  0.
   313  3.12  0.  0.
   314  3.13  0.  0.
   315  3.14  0.  0.
   316  3.15  0.  0.
   317  3.16  0.  0.
   318  3.17  0.  0.
   319  3.18  0.  0.
   320  3.19  0.  0.
   321  3.20  0.  0.
   322  3.21  0.  0.
   323  3.22  0.  0.
   324  3.23  0.  0.
   325  3.24  0.  0.
   326  3.25  0.  0.
   327  3.26  0.  0.
   328  3.27  0.  0.
   329  3.28  0.  0.
   330  3.29  0.  0.
   331  3.30  0.  0.
   332  3.31  0.  0.
   333  3.32  0.  0.
   334  3.33  0.  0.
   335  3.34  0.  0.
   336  3.35  0.  0.
   337  3.36  0.  0.
   338  3.37  0.  0.
   339  3.38  0.  0.
   340  3.39  0.  0.
   341  3.40  0.  0.
   342  3.41  0.  0.
   343  3.42  0.  0.
   344  3.43  0.  0.
   345  3.44  0.  0.
   346  3.45  0.  0.
   347  3.46  0.  0.
   348  3.47  0.  0.
   349  3.48  0.  0.
   350  3.49  0.  0.
   351  3.50  0.  0.
   352  3.51  0.  0.
   353  3.52  0.  0.
   354  3.53  0.  0.
   355  3.54  0.  0.
   356  3.55  0.  0.
   357  3.56  0.  0.
   358  3.57  0.  0.
   359  3.58  0.  0.
   360  3.59  0.  0.
   361  3.60  0.  0.
   362  3.61  0.  0.
   363  3.62  0.  0.
   364  3.63  0.  0.
   365  3.64  0.  0.
   366  3.65  0.  0.
   367  3.66  0.  0.
   368  3.67  0.  0.
   369  3.68  0.  0.
   370  3.69  0.  0.
   371  3.70  0.  0.
   372  3.71  0.  0.
   373  3.72  0.  0.
   374  3.73  0.  0.
   375  3.74  0.  0.
   376  3.75  0.  0.
   377  3.76  0.  0.
   378  3.77  0.  0.
   379  3.78  0.  0.
   380  3.79  0.  0.
   381  3.80  0.  0.
   382  3.81  0.  0.
   383  3.82  0.  0.
   384  3.83  0.  0.
   385  3.84  0.  0.
   386  3.85  0.  0.
   387  3.86  0.  0.
   388  3.87  0.  0.
   389  3.88  0.  0.
   390  3.89  0.  0.
   391  3.90  0.  0.
   392  3.91  0.  0.
   393  3.92  0.  0.
   394  3.93  0.  0.
   395  3.94  0.  0.
   396  3.95  0.  0.
   397  3.96  0.  0.
   398  3.97  0.  0.
   399  3.98  0.  0.
   400  3.99  0.  0.
   401  4.00  0.  0.
   402  4.01  0.  0.
   403  4.02  0.  0.
   404  4.03  0.  0.
   405  4.04  0.  0.
   406  4.05  0.  0.
   407  4.06  0.  0.
   408  4.07  0.  0.
   409  4.08  0.  0.
   410  4.09  0.  0.
   411  4.10  0.  0.
   412  4.11  0.  0.
   413  4.12  0.  0.
   414  4.13  0.  0.
   415  4.14  0.  0.
   416  4.15  0.  0.
   417  4.16  0.  0.
   418  4.17  0.  0.
   419  4.18  0.  0.
   420  4.19  0.  0.
   421  4.20  0.  0.
   422  4.21  0.  0.
   423  4.22  0.  0.
   424  4.23  0.  0.
   425  4.24  0.  0.
   426  4.25  0.  0.
   427  4.26  0.  0.
   428  4.27  0.  0.
   429  4.28  0.  0.
   430  4.29  0.  0.
   431  4.30  0.  0.
   432  4.31  0.  0.
   433  4.32  0.  0.
   434  4.33  0.  0.
   435  4.34  0.  0.
   436  4.35  0.  0.
   437  4.36  0.  0.
   438  4.37  0.  0.
   439  4.38  0.  0.
   440  4.39  0.  0.
   441  4.40  0.  0.
   442  4.41  0.  0.
   443  4.42  0.  0.
   444  4.43  0.  0.
   445  4.44  0.  0.
   446  4.45  0.  0.
   447  4.46  0.  0.
   448  4.47  0.  0.
   449  4.48  0.  0.
   450  4.49  0.  0.
   451  4.50  0.  0.
   452  4.51  0.  0.
   453  4.52  0.  0.
   454  4.53  0.  0.
   455  4.54  0.  0.
   456  4.55  0.  0.
   457  4.56  0.  0.
   458  4.57  0.  0.
   459  4.58  0.  0.
   460  4.59  0.  0.
   461  4.60  0.  0.
   462  4.61  0.  0.
   463  4.62  0.  0.
   464  4.63  0.  0.
   465  4.64  0.  0.
   466  4.65  0.  0.
   467  4.66  0.  0.
   468  4.67  0.  0.
   469  4.68  0.  0.
   470  4.69  0.  0.
   471  4.70  0.  0.
   472  4.71  0.  0.
   473  4.72  0.  0.
   474  4.73  0.  0.
   475  4.74  0.  0.
   476  4.75  0.  0.
   477  4.76  0.  0.
   478  4.77  0.  0.
   479  4.78  0.  0.
   480  4.79  0.  0.
   481  4.80  0.  0.
   482  4.81  0.  0.
   483  4.82  0.  0.
   484  4.83  0.  0.
   485  4.84  0.  0.
   486  4.85  0.  0.
   487  4.86  0.  0.
   488  4.87  0.  0.
   489  4.88  0.  0.
   490  4.89  0.  0.
   491  4.90  0.  0.
   492  4.91  0.  0.
   493  4.92  0.  0.
   494  4.93  0.  0.
   495  4.94  0.  0.
   496  4.95  0.  0.
   497  4.96  0.  0.
   498  4.97  0.  0.
   499  4.98  0.  0.
   500  4.99  0.  0.
   501  5.00  0.  0.
   502  5.01  0.  0.
   503  5.02  0.  0.
   504  5.03  0.  0.
   505  5.04  0.  0.
   506  5.05  0.  0.
   507  5.06  0.  0.
   508  5.07  0.  0.
   509  5.08  0.  0.
   510  5.09  0.  0.
   511  5.10  0.  0.
   512  5.11  0.  0.
   513  5.12  0.  0.
   514  5.13  0.  0.
   515  5.14  0.  0.
   516  5.15  0.  0.
   517  5.16  0.  0.
   518  5.17  0.  0.
   519  5.18  0.  0.
   520  5.19  0.  0.
   521  5.20  0.  0.
   522  5.21  0.  0.
   523  5.22  0.  0.
   524  5.23  0.  0.
   525  5.24  0.  0.
   526  5.25  0.  0.
   527  5.26  0.  0.
   528  5.27  0.  0.
   529  5.28  0.  0.
   530  5.29  0.  0.
   531  5.30  0.  0.
   532  5.31  0.  0.
   533  5.32  0.  0.
   534  5.33  0.  0.
   535  5.34  0.  0.
   536  5.35  0.  0.
   537  5.36  0.  0.
   538  5.37  0.  0.
   539  5.38  0.  0.
   540  5.39  0.  0.
   541  5.40  0.  0.
   542  5.41  0.  0.
   543  5.42  0.  0.
   544  5.43  0.  0.
   545  5.44  0.  0.
   546  5.45  0.  0.
   547  5.46  0.  0.
   548  5.47  0.  0.
   549  5.48  0.  0.
   550  5.49  0.  0.
   551  5.50  0.  0.
   552  5.51  0.  0.
   553  5.52  0.  0.
   554  5.53  0.  0.
   555  5.54  0.  0.
   556  5.55  0.  0.
   557  5.56  0.  0.
   558  5.57  0.  0.
   559  5.58  0.  0.
   560  5.59  0.  0.
   561  5.60  0.  0.
   562  5.61  0.  0.
   563  5.62  0.  0.
   564  5.63  0.  0.
   565  5.64  0.  0.
   566  5.65  0.  0.
   567  5.66  0.  0.
   568  5.67  0.  0.
   569  5.68  0.  0.
   570  5.69  0.  0.
   571  5.70  0.  0.
   572  5.71  0.  0.
   573  5.72  0.  0.
   574  5.73  0.  0.
   575  5.74  0.  0.
   576  5.75  0.  0.
   577  5.76  0.  0.
   578  5.77  0.  0.
   579  5.78  0.  0.
   580  5.79  0.  0.
   581  5.80  0.  0.
   582  5.81  0.  0.
   583  5.82  0.  0.
   584  5.83  0.  0.
   585  5.84  0.  0.
   586  5.85  0.  0.
   587  5.86  0.  0.
   588  5.87  0.  0.
   589  5.88  0.  0.
   590  5.89  0.  0.
   591  5.90  0.  0.
   592  5.91  0.  0.
   593  5.92  0.  0.
   594  5.93  0.  0.
   595  5.94  0.  0.
   596  5.95  0.  0.
   597  5.96  0.  0.
   598  5.97  0.  0.
   599  5.98  0.  0.
   600  5.99  0.  0.
   1                        -1.7552075947569E+00 -5.3453873861982E-01
     1  0.0000000000000E+00 -8.4527558563696E-11  1.4107001677921E-10
     2  1.0000000000000E-02  4.9231354540670E-04 -3.2489263463525E-04
     3  2.0000000000000E-02  1.9691598382224E-03 -1.2993676975452E-03
     4  3.0000000000000E-02  4.4302506352535E-03 -2.9228095978359E-03
     5  4.0000000000000E-02  7.8750881993554E-03 -5.1941688665333E-03
     6  5.0000000000000E-02  1.2302939458033E-02 -8.1119271934708E-03
     7  6.0000000000000E-02  1.7712800137058E-02 -1.1674049003149E-02
     8  7.0000000000000E-02  2.4103349178011E-02 -1.5877920088552E-02
     9  8.0000000000000E-02  3.1472893833213E-02 -2.0720273962978E-02
    10  9.0000000000000E-02  3.9819305913214E-02 -2.6197106725463E-02
    11  1.0000000000000E-01  4.9139949740440E-02 -3.2303581364485E-02
    12  1.1000000000000E-01  5.9431602437058E-02 -3.9033922546225E-02
    13  1.2000000000000E-01  7.0690367245181E-02 -4.6381303046420E-02
    14  1.3000000000000E-01  8.2911580642658E-02 -5.4337723088384E-02
    15  1.4000000000000E-01  9.6089714077398E-02 -6.2893883942724E-02
    16  1.5000000000000E-01  1.1021827119712E-01 -7.2039057226087E-02
    17  1.6000000000000E-01  1.2528968149907E-01 -8.1760951406247E-02
    18  1.7000000000000E-01  1.4129519136536E-01 -9.2045577078430E-02
    19  1.8000000000000E-01  1.5822475348400E-01 -1.0287711262197E-01
    20  1.9000000000000E-01  1.7606691568267E-01 -1.1423777187783E-01
    21  2.0000000000000E-01  1.9480871022229E-01 -1.2610767550453E-01
    22  2.1000000000000E-01  2.1443554460981E-01 -1.3846472767366E-01
    23  2.2000000000000E-01  2.3493109499438E-01 -1.5128449975546E-01
    24  2.3000000000000E-01  2.5627720320838E-01 -1.6454012262055E-01
    25  2.4000000000000E-01  2.7845377850432E-01 -1.7820218914506E-01
    26  2.5000000000000E-01  3.0143870502057E-01 -1.9223866845471E-01
    27  2.6000000000000E-01  3.2520775598345E-01 -2.0661483337755E-01
    28  2.7000000000000E-01  3.4973451562047E-01 -2.2129320249716E-01
    29  2.8000000000000E-01  3.7499030971962E-01 -2.3623349810701E-01
    30  2.9000000000000E-01  4.0094414572270E-01 -2.5139262126457E-01
    31  3.0000000000000E-01  4.2756266318757E-01 -2.6672464503045E-01
    32  3.1000000000000E-01  4.5481009539455E-01 -2.8218082685403E-01
    33  3.2000000000000E-01  4.8264824280688E-01 -2.9770964093446E-01
    34  3.3000000000000E-01  5.1103645902428E-01 -3.1325683124471E-01
    35  3.4000000000000E-01  5.3993164979310E-01 -3.2876548575786E-01
    36  3.5000000000000E-01  5.6928828555617E-01 -3.4417613226024E-01
    37  3.6000000000000E-01  5.9905842794144E-01 -3.5942685597628E-01
    38  3.7000000000000E-01  6.2919177050114E-01 -3.7445343906638E-01
    39  3.8000000000000E-01  6.5963569392252E-01 -3.8918952189287E-01
    40  3.9000000000000E-01  6.9033533583926E-01 -4.0356678578130E-01
    41  4.0000000000000E-01  7.2123367527799E-01 -4.1751515683652E-01
    42  4.1000000000000E-01  7.5227163167966E-01 -4.3096303020623E-01
    43  4.2000000000000E-01  7.8338817833977E-01 -4.4383751401987E-01
    44  4.3000000000000E-01  8.1452047001651E-01 -4.5606469207021E-01
    45  4.4000000000000E-01  8.4560398436135E-01 -4.6756990414840E-01
    46  4.5000000000000E-01  8.7657267673386E-01 -4.7827804279303E-01
    47  4.6000000000000E-01  9.0735914787204E-01 -4.8811386507099E-01
    48  4.7000000000000E-01  9.3789482380120E-01 -4.9700231787230E-01
    49  4.8000000000000E-01  9.6811014728003E-01 -5.0486887507581E-01
    50  4.9000000000000E-01  9.9793478000145E-01 -5.1163988482691E-01
    51  5.0000000000000E-01  1.0272978146895E+00 -5.1724292506373E-01
    52  5.1000000000000E-01  1.0561279961618E+00 -5.2160716533603E-01
    53  5.2000000000000E-01  1.0843539503618E+00 -5.2466373288070E-01
    54  5.3000000000000E-01  1.1119044203020E+00 -5.2634608085139E-01
    55  5.4000000000000E-01  1.1387085078095E+00 -5.2659035654653E-01
    56  5.5000000000000E-01  1.1646959199122E+00 -5.2533576744209E-01
    57  5.6000000000000E-01  1.1897972186677E+00 -5.2252494281070E-01
    58  5.7000000000000E-01  1.2139440732002E+00 -5.1810428870035E-01
    59  5.8000000000000E-01  1.2370695126860E+00 -5.1202433405155E-01
    60  5.9000000000000E-01  1.2591081790074E+00 -5.0424006575280E-01
    61  6.0000000000000E-01  1.2799965777857E+00 -4.9471125047042E-01
    62  6.1000000000000E-01  1.2996733264991E+00 -4.8340274113939E-01
    63  6.2000000000000E-01  1.3180793983950E+00 -4.7028476606720E-01
    64  6.3000000000000E-01  1.3351583609190E+00 -4.5533319868206E-01
    65  6.4000000000000E-01  1.3508566074028E+00 -4.3852980604991E-01
    66  6.5000000000000E-01  1.3651235807782E+00 -4.1986247439080E-01
    67  6.6000000000000E-01  1.3779119881201E+00 -3.9932540994317E-01
    68  6.7000000000000E-01  1.3891780048645E+00 -3.7691931365540E-01
    69  6.8000000000000E-01  1.3988814675909E+00 -3.5265152832374E-01
    70  6.9000000000000E-01  1.4069860543201E+00 -3.2653615694707E-01
    71  7.0000000000000E-01  1.4134594513335E+00 -2.9859415122786E-01
    72  7.1000000000000E-01  1.4182735055902E+00 -2.6885336931611E-01
    73  7.2000000000000E-01  1.4214043618912E+00 -2.3734860206647E-01
    74  7.3000000000000E-01  1.4228325840138E+00 -2.0412156725844E-01
    75  7.4000000000000E-01  1.4225432591261E+00 -1.6922087141278E-01
    76  7.5000000000000E-01  1.4205260848727E+00 -1.3270193902403E-01
    77  7.6000000000000E-01  1.4167754386156E+00 -9.4626909217587E-02
    78  7.7000000000000E-01  1.4112904284043E+00 -5.5064500028665E-02
    79  7.8000000000000E-01  1.4040749253453E+00 -1.4089840688787E-02
    80  7.9000000000000E-01  1.3951375771356E+00  2.8215727507893E-02
    81  8.0000000000000E-01  1.3844918026257E+00  7.1764881003365E-02
    82  8.1000000000000E-01  1.3721557673705E+00  1.1646457350557E-01
    83  8.2000000000000E-01  1.3581523402314E+00  1.6221632414201E-01
    84  8.3000000000000E-01  1.3425090311835E+00  2.0891653296385E-01
    85  8.4000000000000E-01  1.3252579105837E+00  2.5645682236837E-01
    86  8.5000000000000E-01  1.3064355102475E+00  3.0472440285840E-01
    87  8.6000000000000E-01  1.2860827067740E+00  3.5360246141757E-01
    88  8.7000000000000E-01  1.2642445876509E+00  4.0297057065138E-01
    89  8.8000000000000E-01  1.2409703007539E+00  4.5270511672747E-01
    90  8.9000000000000E-01  1.2163128879406E+00  5.0267974404310E-01
    91  9.0000000000000E-01  1.1903291035145E+00  5.5276581445732E-01
    92  9.1000000000000E-01  1.1630792184079E+00  6.0283287884684E-01
    93  9.2000000000000E-01  1.1346268110035E+00  6.5274915868183E-01
    94  9.3000000000000E-01  1.1050385455714E+00  7.0238203526876E-01
    95  9.4000000000000E-01  1.0743839393618E+00  7.5159854427379E-01
    96  9.5000000000000E-01  1.0427351194363E+00  8.0026587312182E-01
    97  9.6000000000000E-01  1.0101665703722E+00  8.4825185886276E-01
    98  9.7000000000000E-01  9.7675487400471E-01  8.9542548410925E-01
    99  9.8000000000000E-01  9.4257844240777E-01  9.4165736867675E-01
   100  9.9000000000000E-01  9.0771724533379E-01  9.8682025459989E-01
   101  1.0000000000000E+00  8.7225253335117E-01  1.0307894822559E+00
   102  1.0100000000000E+00  8.3626655792695E-01  1.0734434553975E+00
   103  1.0200000000000E+00  7.9984228970411E-01  1.1146640929831E+00
   104  1.0300000000000E+00  7.6306313621840E-01  1.1543372657906E+00
   105  1.0400000000000E+00  7.2601266028753E-01  1.1923532159139E+00
   106  1.0500000000000E+00  6.8877430028710E-01  1.2286069573626E+00
   107  1.0600000000000E+00  6.5143109350204E-01  1.2629986561205E+00
   108  1.0700000000000E+00  6.1406540371076E-01  1.2954339881661E+00
   109  1.0800000000000E+00  5.7675865412122E-01  1.3258244741064E+00
   110  1.0900000000000E+00  5.3959106673394E-01  1.3540877892452E+00