Fe    ONCVPSP-4.0.1  r_core=   2.02252   2.50854   2.49358
     26.0000     16.0000      230118    zatom,zion,pspd
     8       2   2     4   600     0    pspcod,pspxc,lmax,lloc,mmax,r2well
  5.99000000  3.00000000  0.00000000    rchrg fchrg qchrg
     2     2     2     0     0    nproj
     1     1           extension_switch
   0                        -2.1945108593865E+00  9.7947191013329E-01
     1  0.0000000000000E+00 -4.8213655290397E-12  9.5700669611176E-11
     2  1.0000000000000E-02  3.4282369087540E-02  5.7787585120270E-02
     3  2.0000000000000E-02  6.8537800438044E-02  1.1544099747633E-01
     4  3.0000000000000E-02  1.0273938786244E-01  1.7282625552832E-01
     5  4.0000000000000E-02  1.3686028815229E-01  2.2980976153135E-01
     6  5.0000000000000E-02  1.7087375228314E-01  2.8625849677393E-01
     7  6.0000000000000E-02  2.0475315627695E-01  3.4204022075675E-01
     8  7.0000000000000E-02  2.3847203161567E-01  3.9702367551187E-01
     9  8.0000000000000E-02  2.7200409510289E-01  4.5107879616615E-01
    10  9.0000000000000E-02  3.0532327807625E-01  5.0407692873612E-01
    11  1.0000000000000E-01  3.3840375488054E-01  5.5589105600310E-01
    12  1.1000000000000E-01  3.7121997051881E-01  6.0639603216135E-01
    13  1.2000000000000E-01  4.0374666740811E-01  6.5546882675892E-01
    14  1.3000000000000E-01  4.3595891117539E-01  7.0298877826266E-01
    15  1.4000000000000E-01  4.6783211543975E-01  7.4883785737912E-01
    16  1.5000000000000E-01  4.9934206553741E-01  7.9290094005251E-01
    17  1.6000000000000E-01  5.3046494115696E-01  8.3506608984348E-01
    18  1.7000000000000E-01  5.6117733786392E-01  8.7522484917043E-01
    19  1.8000000000000E-01  5.9145628750463E-01  9.1327253867065E-01
    20  1.9000000000000E-01  6.2127927749126E-01  9.4910856371572E-01
    21  2.0000000000000E-01  6.5062426898070E-01  9.8263672689580E-01
    22  2.1000000000000E-01  6.7946971397121E-01  1.0137655450750E+00
    23  2.2000000000000E-01  7.0779457135101E-01  1.0424085694157E+00
    24  2.3000000000000E-01  7.3557832194329E-01  1.0684847065789E+00
    25  2.4000000000000E-01  7.6280098260095E-01  1.0919185391300E+00
    26  2.5000000000000E-01  7.8944311941328E-01  1.1126406430196E+00
    27  2.6000000000000E-01  8.1548586009416E-01  1.1305878998685E+00
    28  2.7000000000000E-01  8.4091090562784E-01  1.1457038016655E+00
    29  2.8000000000000E-01  8.6570054125413E-01  1.1579387453925E+00
    30  2.9000000000000E-01  8.8983764687883E-01  1.1672503150180E+00
    31  3.0000000000000E-01  9.1330570699846E-01  1.1736035482561E+00
    32  3.1000000000000E-01  9.3608882023020E-01  1.1769711854698E+00
    33  3.2000000000000E-01  9.5817170853809E-01  1.1773338981089E+00
    34  3.3000000000000E-01  9.7953972624615E-01  1.1746804941104E+00
    35  3.4000000000000E-01  1.0001788689264E+00  1.1690080977565E+00
    36  3.5000000000000E-01  1.0200757822466E+00  1.1603223015853E+00
    37  3.6000000000000E-01  1.0392177708570E+00  1.1486372880691E+00
    38  3.7000000000000E-01  1.0575928073905E+00  1.1339759189317E+00
    39  3.8000000000000E-01  1.0751895416416E+00  1.1163697901525E+00
    40  3.9000000000000E-01  1.0919973099827E+00  1.0958592509096E+00
    41  4.0000000000000E-01  1.1080061450651E+00  1.0724933849430E+00
    42  4.1000000000000E-01  1.1232067858430E+00  1.0463299530643E+00
    43  4.2000000000000E-01  1.1375906879474E+00  1.0174352958134E+00
    44  4.3000000000000E-01  1.1511500344221E+00  9.8588419554203E-01
    45  4.4000000000000E-01  1.1638777468260E+00  9.5175969750906E-01
    46  4.5000000000000E-01  1.1757674966879E+00  9.1515288988065E-01
    47  4.6000000000000E-01  1.1868137172903E+00  8.7616264285068E-01
    48  4.7000000000000E-01  1.1970116157424E+00  8.3489530742187E-01
    49  4.8000000000000E-01  1.2063571852907E+00  7.9146437471671E-01
    50  4.9000000000000E-01  1.2148472178016E+00  7.4599009701530E-01
    51  5.0000000000000E-01  1.2224793163362E+00  6.9859907204045E-01
    52  5.1000000000000E-01  1.2292519077270E+00  6.4942379232702E-01
    53  5.2000000000000E-01  1.2351642550519E+00  5.9860216181858E-01
    54  5.3000000000000E-01  1.2402164698914E+00  5.4627698212648E-01
    55  5.4000000000000E-01  1.2444095242430E+00  4.9259541116223E-01
    56  5.5000000000000E-01  1.2477452619598E+00  4.3770839711002E-01
    57  5.6000000000000E-01  1.2502264095696E+00  3.8177009094004E-01
    58  5.7000000000000E-01  1.2518565863254E+00  3.2493724087188E-01
    59  5.8000000000000E-01  1.2526403133338E+00  2.6736857237917E-01
    60  5.9000000000000E-01  1.2525830216023E+00  2.0922415747876E-01
    61  6.0000000000000E-01  1.2516910588443E+00  1.5066477716934E-01
    62  6.1000000000000E-01  1.2499716948824E+00  9.1851280973130E-02
    63  6.2000000000000E-01  1.2474331254888E+00  3.2943947588923E-02
    64  6.3000000000000E-01  1.2440844745053E+00 -2.5898149313722E-02
    65  6.4000000000000E-01  1.2399357940920E+00 -8.4517766145128E-02
    66  6.5000000000000E-01  1.2349980629573E+00 -1.4276010132580E-01
    67  6.6000000000000E-01  1.2292831824310E+00 -2.0047339021668E-01
    68  6.7000000000000E-01  1.2228039702531E+00 -2.5750947928910E-01
    69  6.8000000000000E-01  1.2155741519593E+00 -3.1372437592661E-01
    70  6.9000000000000E-01  1.2076083497616E+00 -3.6897877043766E-01
    71  7.0000000000000E-01  1.1989220688309E+00 -4.2313852707317E-01
    72  7.1000000000000E-01  1.1895316809091E+00 -4.7607514108929E-01
    73  7.2000000000000E-01  1.1794544051927E+00 -5.2766615916790E-01
    74  7.3000000000000E-01  1.1687082864471E+00 -5.7779556080322E-01
    75  7.4000000000000E-01  1.1573121703311E+00 -6.2635409858247E-01
    76  7.5000000000000E-01  1.1452856759304E+00 -6.7323959562406E-01
    77  7.6000000000000E-01  1.1326491655165E+00 -7.1835719879034E-01
    78  7.7000000000000E-01  1.1194237115725E+00 -7.6161958665632E-01
    79  7.8000000000000E-01  1.1056310611420E+00 -8.0294713158914E-01
    80  7.9000000000000E-01  1.0912935975838E+00 -8.4226801567203E-01
    81  8.0000000000000E-01  1.0764342998311E+00 -8.7951830058656E-01
    82  8.1000000000000E-01  1.0610766992761E+00 -9.1464195194533E-01
    83  8.2000000000000E-01  1.0452448344198E+00 -9.4759081893943E-01
    84  8.3000000000000E-01  1.0289632034460E+00 -9.7832457052820E-01
    85  8.4000000000000E-01  1.0122567148951E+00 -1.0068105897485E+00
    86  8.5000000000000E-01  9.9515063663124E-01 -1.0330238280554E+00
    87  8.6000000000000E-01  9.7767054331024E-01 -1.0569466219179E+00
    88  8.7000000000000E-01  9.5984226257191E-01 -1.0785684741890E+00
    89  8.8000000000000E-01  9.4169182018941E-01 -1.0978858030289E+00
    90  8.9000000000000E-01  9.2324538442170E-01 -1.1149016614048E+00
    91  9.0000000000000E-01  9.0452920982209E-01 -1.1296254303916E+00
    92  9.1000000000000E-01  8.8556958076347E-01 -1.1420724896755E+00
    93  9.2000000000000E-01  8.6639275494495E-01 -1.1522638688032E+00
    94  9.3000000000000E-01  8.4702490714770E-01 -1.1602258828208E+00
    95  9.4000000000000E-01  8.2749207350787E-01 -1.1659897560166E+00
    96  9.5000000000000E-01  8.0782009657299E-01 -1.1695912375134E+00
    97  9.6000000000000E-01  7.8803457140439E-01 -1.1710702124450E+00
    98  9.7000000000000E-01  7.6816079298205E-01 -1.1704703124119E+00
    99  9.8000000000000E-01  7.4822370516033E-01 -1.1678385288250E+00
   100  9.9000000000000E-01  7.2824785141282E-01 -1.1632248326338E+00
   101  1.0000000000000E+00  7.0825732759253E-01 -1.1566818037778E+00
   102  1.0100000000000E+00  6.8827573691955E-01 -1.1482642735188E+00
   103  1.0200000000000E+00  6.6832614739278E-01 -1.1380289825946E+00
   104  1.0300000000000E+00  6.4843105180482E-01 -1.1260342578858E+00
   105  1.0400000000000E+00  6.2861233052065E-01 -1.1123397100215E+00
   106  1.0500000000000E+00  6.0889121716017E-01 -1.0970059540498E+00
   107  1.0600000000000E+00  5.8928826730427E-01 -1.0800943549869E+00
   108  1.0700000000000E+00  5.6982333032109E-01 -1.0616667997247E+00
   109  1.0800000000000E+00  5.5051552438727E-01 -1.0417854964341E+00
   110  1.0900000000000E+00  5.3138321475490E-01 -1.0205128022425E+00
   111  1.1000000000000E+00  5.1244399529180E-01 -9.9791107960697E-01
   112  1.1100000000000E+00  4.9371467329888E-01 -9.7404258144028E-01
   113  1.1200000000000E+00  4.7521125758478E-01 -9.4896936468514E-01
   114  1.1300000000000E+00  4.5694894975488E-01 -9.2275323167933E-01
   115  1.1400000000000E+00  4.3894213864916E-01 -8.9545569830748E-01
   116  1.1500000000000E+00  4.2120439784158E-01 -8.6713798760424E-01
   117  1.1600000000000E+00  4.0374848609279E-01 -8.3786104715784E-01
   118  1.1700000000000E+00  3.8658635062844E-01 -8.0768558837027E-01
   119  1.1800000000000E+00  3.6972913309690E-01 -7.7667214535735E-01
   120  1.1900000000000E+00  3.5318717804373E-01 -7.4488115103033E-01
   121  1.2000000000000E+00  3.3697004372492E-01 -7.1237302768408E-01
   122  1.2100000000000E+00  3.2108651506781E-01 -6.7920828923551E-01
   123  1.2200000000000E+00  3.0554461857735E-01 -6.4544765210598E-01
   124  1.2300000000000E+00  2.9035163897598E-01 -6.1115215162880E-01
   125  1.2400000000000E+00  2.7551413735857E-01 -5.7638326078618E-01
   126  1.2500000000000E+00  2.6103797063835E-01 -5.4120300804168E-01
   127  1.2600000000000E+00  2.4692831205784E-01 -5.0567409103416E-01
   128  1.2700000000000E+00  2.3318967253752E-01 -4.6985998293796E-01
   129  1.2800000000000E+00  2.1982592263722E-01 -4.3382502837077E-01
   130  1.2900000000000E+00  2.0684031490890E-01 -3.9763452584546E-01
   131  1.3000000000000E+00  1.9423550642568E-01 -3.6135479391302E-01
   132  1.3100000000000E+00  1.8201358127992E-01 -3.2505321833011E-01
   133  1.3200000000000E+00  1.7017607285347E-01 -2.8879827780420E-01
   134  1.3300000000000E+00  1.5872398567505E-01 -2.5265954611869E-01
   135  1.3400000000000E+00  1.4765781669326E-01 -2.1670766872017E-01
   136  1.3500000000000E+00  1.3697757580932E-01 -1.8101431215347E-01
   137  1.3600000000000E+00  1.2668280552977E-01 -1.4565208505533E-01
   138  1.3700000000000E+00  1.1677259961769E-01 -1.1069442976430E-01
   139  1.3800000000000E+00  1.0724562063953E-01 -7.6215483962721E-02
   140  1.3900000000000E+00  9.8100116324486E-02 -4.2289912139218E-02
   141  1.4000000000000E+00  8.9333934673621E-02 -8.9927070371392E-03
   142  1.4100000000000E+00  8.0944537776535E-02  2.3601038363555E-02
   143  1.4200000000000E+00  7.2929014314277E-02  5.5416387403007E-02
   144  1.4300000000000E+00  6.5284090747917E-02  8.6378843534445E-02
   145  1.4400000000000E+00  5.8006141212667E-02  1.1641465968532E-01
   146  1.4500000000000E+00  5.1091196157347E-02  1.4545117116679E-01
   147  1.4600000000000E+00  4.4534949788251E-02  1.7341714977786E-01
   148  1.4700000000000E+00  3.8332766394714E-02  2.0024317643643E-01
   149  1.4800000000000E+00  3.2479685650812E-02  2.2586202938295E-01
   150  1.4900000000000E+00  2.6970427003443E-02  2.5020908474186E-01
   151  1.5000000000000E+00  2.1799393271323E-02  2.7322272599857E-01
   152  1.5100000000000E+00  1.6960673592096E-02  2.9484475875551E-01
   153  1.5200000000000E+00  1.2448045865607E-02  3.1502082697403E-01
   154  1.5300000000000E+00  8.2549788502987E-03  3.3370082679047E-01
   155  1.5400000000000E+00  4.3746340766499E-03  3.5083931391683E-01
   156  1.5500000000000E+00  7.9986774636138E-04  3.6639590060070E-01
   157  1.5600000000000E+00 -2.4767672113352E-03  3.8033563812542E-01
   158  1.5700000000000E+00 -5.4630187543777E-03  3.9262938088092E-01
   159  1.5800000000000E+00 -8.1669328434352E-03  4.0325412812823E-01
   160  1.5900000000000E+00 -1.0596849892115E-02  4.1219333971558E-01
   161  1.6000000000000E+00 -1.2761400391606E-02  4.1943722218003E-01
   162  1.6100000000000E+00 -1.4669499557752E-02  4.2498298188545E-01
   163  1.6200000000000E+00 -1.6330340858635E-02  4.2883504210198E-01
   164  1.6300000000000E+00 -1.7753388292877E-02  4.3100522122304E-01
   165  1.6400000000000E+00 -1.8948367302644E-02  4.3151286964019E-01
   166  1.6500000000000E+00 -1.9925254220841E-02  4.3038496315041E-01
   167  1.6600000000000E+00 -2.0694264168965E-02  4.2765615115268E-01
   168  1.6700000000000E+00 -2.1265837340271E-02  4.2336875829499E-01
   169  1.6800000000000E+00 -2.1650623622305E-02  4.1757273865890E-01
   170  1.6900000000000E+00 -2.1859465533139E-02  4.1032558200781E-01
   171  1.7000000000000E+00 -2.1903379466490E-02  4.0169217207716E-01
   172  1.7100000000000E+00 -2.1793535262468E-02  3.9174459734291E-01
   173  1.7200000000000E+00 -2.1541234142173E-02  3.8056191516424E-01
   174  1.7300000000000E+00 -2.1157885066148E-02  3.6822987065466E-01
   175  1.7400000000000E+00 -2.0654979598020E-02  3.5484057208631E-01
   176  1.7500000000000E+00 -2.0044065375667E-02  3.4049212507064E-01
   177  1.7600000000000E+00 -1.9336718312489E-02  3.2528822818232E-01
   178  1.7700000000000E+00 -1.8544513670723E-02  3.0933773309477E-01
   179  1.7800000000000E+00 -1.7678996166982E-02  2.9275417267381E-01
   180  1.7900000000000E+00 -1.6751649287081E-02  2.7565526082481E-01
   181  1.8000000000000E+00 -1.5773864002643E-02  2.5816236820579E-01
   182  1.8100000000000E+00 -1.4756907133534E-02  2.4039997901992E-01
   183  1.8200000000000E+00 -1.3711889530655E-02  2.2249513253868E-01
   184  1.8300000000000E+00 -1.2649732754266E-02  2.0457682087675E-01
   185  1.8400000000000E+00 -1.1581144043109E-02  1.8677555418902E-01
   186  1.8500000000000E+00 -1.0516547051205E-02  1.6922195717018E-01
   187  1.8600000000000E+00 -9.4659121712063E-03  1.5204320236156E-01
   188  1.8700000000000E+00 -8.4386104254058E-03  1.3535999284648E-01
   189  1.8800000000000E+00 -7.4433767747168E-03  1.1928591817630E-01
   190  1.8900000000000E+00 -6.4882737981653E-03  1.0392680581118E-01
   191  1.9000000000000E+00 -5.5806590927479E-03  8.9380072701062E-02
   192  1.9100000000000E+00 -4.7271553480821E-03  7.5734354673613E-02
   193  1.9200000000000E+00 -3.9336204991691E-03  6.3068606190158E-02
   194  1.9300000000000E+00 -3.2051345076651E-03  5.1447308135239E-02
   195  1.9400000000000E+00 -2.5459855455571E-03  4.0923499064032E-02
   196  1.9500000000000E+00 -1.9596304334117E-03  3.1550051675667E-02
   197  1.9600000000000E+00 -1.4486663992111E-03  2.3367645843941E-02
   198  1.9700000000000E+00 -1.0148250551384E-03  1.6404955680710E-02
   199  1.9800000000000E+00 -6.5896800821449E-04  1.0678459485590E-02
   200  1.9900000000000E+00 -3.8116909377879E-04  6.1937747884167E-03
   201  2.0000000000000E+00 -1.8006695150920E-04  2.9349360630200E-03
   202  2.0100000000000E+00 -5.4754548658216E-05  8.9551935578400E-04
   203  2.0200000000000E+00 -4.1731482734775E-06  6.8564839847374E-05
   204  2.0300000000000E+00  1.9263805891969E-06 -3.1677806219683E-05
   205  2.0400000000000E+00 -7.4923102738171E-07  1.2290438617706E-05
   206  2.05  0. -0.
   207  2.06 -0. -0.
   208  2.07 -0. -0.
   209  2.08  0.  0.
   210  2.09  0.  0.
   211  2.10  0.  0.
   212  2.11  0.  0.
   213  2.12  0.  0.
   214  2.13  0.  0.
   215  2.14  0.  0.
   216  2.15  0.  0.
   217  2.16  0.  0.
   218  2.17  0.  0.
   219  2.18  0.  0.
   220  2.19  0.  0.
   221  2.20  0.  0.
   222  2.21  0.  0.
   223  2.22  0.  0.
   224  2.23  0.  0.
   225  2.24  0.  0.
   226  2.25  0.  0.
   227  2.26  0.  0.
   228  2.27  0.  0.
   229  2.28  0.  0.
   230  2.29  0.  0.
   231  2.30  0.  0.
   232  2.31  0.  0.
   233  2.32  0.  0.
   234  2.33  0.  0.
   235  2.34  0.  0.
   236  2.35  0.  0.
   237  2.36  0.  0.
   238  2.37  0.  0.
   239  2.38  0.  0.
   240  2.39  0.  0.
   241  2.40  0.  0.
   242  2.41  0.  0.
   243  2.42  0.  0.
   244  2.43  0.  0.
   245  2.44  0.  0.
   246  2.45  0.  0.
   247  2.46  0.  0.
   248  2.47  0.  0.
   249  2.48  0.  0.
   250  2.49  0.  0.
   251  2.50  0.  0.
   252  2.51  0.  0.
   253  2.52  0.  0.
   254  2.53  0.  0.
   255  2.54  0.  0.
   256  2.55  0.  0.
   257  2.56  0.  0.
   258  2.57  0.  0.
   259  2.58  0.  0.
   260  2.59  0.  0.
   261  2.60  0.  0.
   262  2.61  0.  0.
   263  2.62  0.  0.
   264  2.63  0.  0.
   265  2.64  0.  0.
   266  2.65  0.  0.
   267  2.66  0.  0.
   268  2.67  0.  0.
   269  2.68  0.  0.
   270  2.69  0.  0.
   271  2.70  0.  0.
   272  2.71  0.  0.
   273  2.72  0.  0.
   274  2.73  0.  0.
   275  2.74  0.  0.
   276  2.75  0.  0.
   277  2.76  0.  0.
   278  2.77  0.  0.
   279  2.78  0.  0.
   280  2.79  0.  0.
   281  2.80  0.  0.
   282  2.81  0.  0.
   283  2.82  0.  0.
   284  2.83  0.  0.
   285  2.84  0.  0.
   286  2.85  0.  0.
   287  2.86  0.  0.
   288  2.87  0.  0.
   289  2.88  0.  0.
   290  2.89  0.  0.
   291  2.90  0.  0.
   292  2.91  0.  0.
   293  2.92  0.  0.
   294  2.93  0.  0.
   295  2.94  0.  0.
   296  2.95  0.  0.
   297  2.96  0.  0.
   298  2.97  0.  0.
   299  2.98  0.  0.
   300  2.99  0.  0.
   301  3.00  0.  0.
   302  3.01  0.  0.
   303  3.02  0.  0.
   304  3.03  0.  0.
   305  3.04  0.  0.
   306  3.05  0.  0.
   307  3.06  0.  0.
   308  3.07  0.  0.
   309  3.08  0.  0.
   310  3.09  0.  0.
   311  3.10  0.  0.
   312  3.11  0.  0.
   313  3.12  0.  0.
   314  3.13  0.  0.
   315  3.14  0.  0.
   316  3.15  0.  0.
   317  3.16  0.  0.
   318  3.17  0.  0.
   319  3.18  0.  0.
   320  3.19  0.  0.
   321  3.20  0.  0.
   322  3.21  0.  0.
   323  3.22  0.  0.
   324  3.23  0.  0.
   325  3.24  0.  0.
   326  3.25  0.  0.
   327  3.26  0.  0.
   328  3.27  0.  0.
   329  3.28  0.  0.
   330  3.29  0.  0.
   331  3.30  0.  0.
   332  3.31  0.  0.
   333  3.32  0.  0.
   334  3.33  0.  0.
   335  3.34  0.  0.
   336  3.35  0.  0.
   337  3.36  0.  0.
   338  3.37  0.  0.
   339  3.38  0.  0.
   340  3.39  0.  0.
   341  3.40  0.  0.
   342  3.41  0.  0.
   343  3.42  0.  0.
   344  3.43  0.  0.
   345  3.44  0.  0.
   346  3.45  0.  0.
   347  3.46  0.  0.
   348  3.47  0.  0.
   349  3.48  0.  0.
   350  3.49  0.  0.
   351  3.50  0.  0.
   352  3.51  0.  0.
   353  3.52  0.  0.
   354  3.53  0.  0.
   355  3.54  0.  0.
   356  3.55  0.  0.
   357  3.56  0.  0.
   358  3.57  0.  0.
   359  3.58  0.  0.
   360  3.59  0.  0.
   361  3.60  0.  0.
   362  3.61  0.  0.
   363  3.62  0.  0.
   364  3.63  0.  0.
   365  3.64  0.  0.
   366  3.65  0.  0.
   367  3.66  0.  0.
   368  3.67  0.  0.
   369  3.68  0.  0.
   370  3.69  0.  0.
   371  3.70  0.  0.
   372  3.71  0.  0.
   373  3.72  0.  0.
   374  3.73  0.  0.
   375  3.74  0.  0.
   376  3.75  0.  0.
   377  3.76  0.  0.
   378  3.77  0.  0.
   379  3.78  0.  0.
   380  3.79  0.  0.
   381  3.80  0.  0.
   382  3.81  0.  0.
   383  3.82  0.  0.
   384  3.83  0.  0.
   385  3.84  0.  0.
   386  3.85  0.  0.
   387  3.86  0.  0.
   388  3.87  0.  0.
   389  3.88  0.  0.
   390  3.89  0.  0.
   391  3.90  0.  0.
   392  3.91  0.  0.
   393  3.92  0.  0.
   394  3.93  0.  0.
   395  3.94  0.  0.
   396  3.95  0.  0.
   397  3.96  0.  0.
   398  3.97  0.  0.
   399  3.98  0.  0.
   400  3.99  0.  0.
   401  4.00  0.  0.
   402  4.01  0.  0.
   403  4.02  0.  0.
   404  4.03  0.  0.
   405  4.04  0.  0.
   406  4.05  0.  0.
   407  4.06  0.  0.
   408  4.07  0.  0.
   409  4.08  0.  0.
   410  4.09  0.  0.
   411  4.10  0.  0.
   412  4.11  0.  0.
   413  4.12  0.  0.
   414  4.13  0.  0.
   415  4.14  0.  0.
   416  4.15  0.  0.
   417  4.16  0.  0.
   418  4.17  0.  0.
   419  4.18  0.  0.
   420  4.19  0.  0.
   421  4.20  0.  0.
   422  4.21  0.  0.
   423  4.22  0.  0.
   424  4.23  0.  0.
   425  4.24  0.  0.
   426  4.25  0.  0.
   427  4.26  0.  0.
   428  4.27  0.  0.
   429  4.28  0.  0.
   430  4.29  0.  0.
   431  4.30  0.  0.
   432  4.31  0.  0.
   433  4.32  0.  0.
   434  4.33  0.  0.
   435  4.34  0.  0.
   436  4.35  0.  0.
   437  4.36  0.  0.
   438  4.37  0.  0.
   439  4.38  0.  0.
   440  4.39  0.  0.
   441  4.40  0.  0.
   442  4.41  0.  0.
   443  4.42  0.  0.
   444  4.43  0.  0.
   445  4.44  0.  0.
   446  4.45  0.  0.
   447  4.46  0.  0.
   448  4.47  0.  0.
   449  4.48  0.  0.
   450  4.49  0.  0.
   451  4.50  0.  0.
   452  4.51  0.  0.
   453  4.52  0.  0.
   454  4.53  0.  0.
   455  4.54  0.  0.
   456  4.55  0.  0.
   457  4.56  0.  0.
   458  4.57  0.  0.
   459  4.58  0.  0.
   460  4.59  0.  0.
   461  4.60  0.  0.
   462  4.61  0.  0.
   463  4.62  0.  0.
   464  4.63  0.  0.
   465  4.64  0.  0.
   466  4.65  0.  0.
   467  4.66  0.  0.
   468  4.67  0.  0.
   469  4.68  0.  0.
   470  4.69  0.  0.
   471  4.70  0.  0.
   472  4.71  0.  0.
   473  4.72  0.  0.
   474  4.73  0.  0.
   475  4.74  0.  0.
   476  4.75  0.  0.
   477  4.76  0.  0.
   478  4.77  0.  0.
   479  4.78  0.  0.
   480  4.79  0.  0.
   481  4.80  0.  0.
   482  4.81  0.  0.
   483  4.82  0.  0.
   484  4.83  0.  0.
   485  4.84  0.  0.
   486  4.85  0.  0.
   487  4.86  0.  0.
   488  4.87  0.  0.
   489  4.88  0.  0.
   490  4.89  0.  0.
   491  4.90  0.  0.
   492  4.91  0.  0.
   493  4.92  0.  0.
   494  4.93  0.  0.
   495  4.94  0.  0.
   496  4.95  0.  0.
   497  4.96  0.  0.
   498  4.97  0.  0.
   499  4.98  0.  0.
   500  4.99  0.  0.
   501  5.00  0.  0.
   502  5.01  0.  0.
   503  5.02  0.  0.
   504  5.03  0.  0.
   505  5.04  0.  0.
   506  5.05  0.  0.
   507  5.06  0.  0.
   508  5.07  0.  0.
   509  5.08  0.  0.
   510  5.09  0.  0.
   511  5.10  0.  0.
   512  5.11  0.  0.
   513  5.12  0.  0.
   514  5.13  0.  0.
   515  5.14  0.  0.
   516  5.15  0.  0.
   517  5.16  0.  0.
   518  5.17  0.  0.
   519  5.18  0.  0.
   520  5.19  0.  0.
   521  5.20  0.  0.
   522  5.21  0.  0.
   523  5.22  0.  0.
   524  5.23  0.  0.
   525  5.24  0.  0.
   526  5.25  0.  0.
   527  5.26  0.  0.
   528  5.27  0.  0.
   529  5.28  0.  0.
   530  5.29  0.  0.
   531  5.30  0.  0.
   532  5.31  0.  0.
   533  5.32  0.  0.
   534  5.33  0.  0.
   535  5.34  0.  0.
   536  5.35  0.  0.
   537  5.36  0.  0.
   538  5.37  0.  0.
   539  5.38  0.  0.
   540  5.39  0.  0.
   541  5.40  0.  0.
   542  5.41  0.  0.
   543  5.42  0.  0.
   544  5.43  0.  0.
   545  5.44  0.  0.
   546  5.45  0.  0.
   547  5.46  0.  0.
   548  5.47  0.  0.
   549  5.48  0.  0.
   550  5.49  0.  0.
   551  5.50  0.  0.
   552  5.51  0.  0.
   553  5.52  0.  0.
   554  5.53  0.  0.
   555  5.54  0.  0.
   556  5.55  0.  0.
   557  5.56  0.  0.
   558  5.57  0.  0.
   559  5.58  0.  0.
   560  5.59  0.  0.
   561  5.60  0.  0.
   562  5.61  0.  0.
   563  5.62  0.  0.
   564  5.63  0.  0.
   565  5.64  0.  0.
   566  5.65  0.  0.
   567  5.66  0.  0.
   568  5.67  0.  0.
   569  5.68  0.  0.
   570  5.69  0.  0.
   571  5.70  0.  0.
   572  5.71  0.  0.
   573  5.72  0.  0.
   574  5.73  0.  0.
   575  5.74  0.  0.
   576  5.75  0.  0.
   577  5.76  0.  0.
   578  5.77  0.  0.
   579  5.78  0.  0.
   580  5.79  0.  0.
   581  5.80  0.  0.
   582  5.81  0.  0.
   583  5.82  0.  0.
   584  5.83  0.  0.
   585  5.84  0.  0.
   586  5.85  0.  0.
   587  5.86  0.  0.
   588  5.87  0.  0.
   589  5.88  0.  0.
   590  5.89  0.  0.
   591  5.90  0.  0.
   592  5.91  0.  0.
   593  5.92  0.  0.
   594  5.93  0.  0.
   595  5.94  0.  0.
   596  5.95  0.  0.
   597  5.96  0.  0.
   598  5.97  0.  0.
   599  5.98  0.  0.
   600  5.99  0.  0.
   1                        -3.9165944729452E+00 -1.1394132822455E+00
     1  0.0000000000000E+00  3.5951429333547E-11 -7.6046391406237E-11
     2  1.0000000000000E-02  8.8138815303546E-04 -7.1563691516816E-04
     3  2.0000000000000E-02  3.5232943099668E-03 -2.8594686527360E-03
     4  3.0000000000000E-02  7.9189497892491E-03 -6.4222692739583E-03
     5  4.0000000000000E-02  1.4057094186494E-02 -1.1388699125429E-02
     6  5.0000000000000E-02  2.1922006407403E-02 -1.7737360069147E-02
     7  6.0000000000000E-02  3.1493547985358E-02 -2.5440872531810E-02
     8  7.0000000000000E-02  4.2747218555627E-02 -3.4465974101602E-02
     9  8.0000000000000E-02  5.5654223322212E-02 -4.4773639324733E-02
    10  9.0000000000000E-02  7.0181552317896E-02 -5.6319220279146E-02
    11  1.0000000000000E-01  8.6292071223244E-02 -6.9052607429431E-02
    12  1.1000000000000E-01  1.0394462347612E-01 -8.2918410195250E-02
    13  1.2000000000000E-01  1.2309414336995E-01 -9.7856156595844E-02
    14  1.3000000000000E-01  1.4369177980660E-01 -1.1380051126568E-01
    15  1.4000000000000E-01  1.6568503033803E-01 -1.3068151107111E-01
    16  1.5000000000000E-01  1.8901788510098E-01 -1.4842481749542E-01
    17  1.6000000000000E-01  2.1363098021926E-01 -1.6695198490022E-01
    18  1.7000000000000E-01  2.3946176022085E-01 -1.8618074371422E-01
    19  1.8000000000000E-01  2.6644464899002E-01 -2.0602529754772E-01
    20  1.9000000000000E-01  2.9451122874998E-01 -2.2639663318089E-01
    21  2.0000000000000E-01  3.2359042654786E-01 -2.4720284232808E-01
    22  2.1000000000000E-01  3.5360870769179E-01 -2.6834945403815E-01
    23  2.2000000000000E-01  3.8449027556977E-01 -2.8973977655219E-01
    24  2.3000000000000E-01  4.1615727726123E-01 -3.1127524740620E-01
    25  2.4000000000000E-01  4.4853001433574E-01 -3.3285579053608E-01
    26  2.5000000000000E-01  4.8152715821797E-01 -3.5438017911681E-01
    27  2.6000000000000E-01  5.1506596948541E-01 -3.7574640284664E-01
    28  2.7000000000000E-01  5.4906252045413E-01 -3.9685203837036E-01
    29  2.8000000000000E-01  5.8343192039852E-01 -4.1759462152409E-01
    30  2.9000000000000E-01  6.1808854274439E-01 -4.3787202007653E-01
    31  3.0000000000000E-01  6.5294625356922E-01 -4.5758280563913E-01
    32  3.1000000000000E-01  6.8791864074069E-01 -4.7662662342000E-01
    33  3.2000000000000E-01  7.2291924302366E-01 -4.9490455850314E-01
    34  3.3000000000000E-01  7.5786177848671E-01 -5.1231949734636E-01
    35  3.4000000000000E-01  7.9266037154300E-01 -5.2877648320782E-01
    36  3.5000000000000E-01  8.2722977796507E-01 -5.4418306423183E-01
    37  3.6000000000000E-01  8.6148560722093E-01 -5.5844963295074E-01
    38  3.7000000000000E-01  8.9534454148803E-01 -5.7148975598955E-01
    39  3.8000000000000E-01  9.2872455071327E-01 -5.8322049279476E-01
    40  3.9000000000000E-01  9.6154510310040E-01 -5.9356270224796E-01
    41  4.0000000000000E-01  9.9372737042188E-01 -6.0244133606770E-01
    42  4.1000000000000E-01  1.0251944275694E+00 -6.0978571795076E-01
    43  4.2000000000000E-01  1.0558714457760E+00 -6.1552980745459E-01
    44  4.3000000000000E-01  1.0856858789646E+00 -6.1961244767808E-01
    45  4.4000000000000E-01  1.1145676426996E+00 -6.2197759585591E-01
    46  4.5000000000000E-01  1.1424492852420E+00 -6.2257453604346E-01
    47  4.6000000000000E-01  1.1692661502367E+00 -6.2135807313439E-01
    48  4.7000000000000E-01  1.1949565305848E+00 -6.1828870752036E-01
    49  4.8000000000000E-01  1.2194618130856E+00 -6.1333278977295E-01
    50  4.9000000000000E-01  1.2427266134604E+00 -6.0646265480073E-01
    51  5.0000000000000E-01  1.2646989014038E+00 -5.9765673500886E-01
    52  5.1000000000000E-01  1.2853301153395E+00 -5.8689965206585E-01
    53  5.2000000000000E-01  1.3045752665906E+00 -5.7418228696008E-01
    54  5.3000000000000E-01  1.3223930327104E+00 -5.5950182810832E-01
    55  5.4000000000000E-01  1.3387458397532E+00 -5.4286179735900E-01
    56  5.5000000000000E-01  1.3535999333015E+00 -5.2427205381434E-01
    57  5.6000000000000E-01  1.3669254381009E+00 -5.0374877547676E-01
    58  5.7000000000000E-01  1.3786964061937E+00 -4.8131441880687E-01
    59  5.8000000000000E-01  1.3888908534754E+00 -4.5699765636154E-01
    60  5.9000000000000E-01  1.3974907846389E+00 -4.3083329276132E-01
    61  6.0000000000000E-01  1.4044822065055E+00 -4.0286215931661E-01
    62  6.1000000000000E-01  1.4098551297831E+00 -3.7313098772031E-01
    63  6.2000000000000E-01  1.4136035593233E+00 -3.4169226329213E-01
    64  6.3000000000000E-01  1.4157254729910E+00 -3.0860405833510E-01
    65  6.4000000000000E-01  1.4162227892934E+00 -2.7392984623790E-01
    66  6.5000000000000E-01  1.4151013239506E+00 -2.3773829702763E-01
    67  6.6000000000000E-01  1.4123707356276E+00 -2.0010305514586E-01
    68  6.7000000000000E-01  1.4080444610765E+00 -1.6110250028567E-01
    69  6.8000000000000E-01  1.4021396399767E+00 -1.2081949218993E-01
    70  6.9000000000000E-01  1.3946770297871E+00 -7.9341100368894E-02
    71  7.0000000000000E-01  1.3856809109593E+00 -3.6758319750531E-02
    72  7.1000000000000E-01  1.3751789828870E+00  6.8342266724319E-03
    73  7.2000000000000E-01  1.3632022509971E+00  5.1338597088048E-02
    74  7.3000000000000E-01  1.3497849054122E+00  9.6653850850192E-02
    75  7.4000000000000E-01  1.3349641916414E+00  1.4267637801216E-01
    76  7.5000000000000E-01  1.3187802737772E+00  1.8930023718472E-01
    77  7.6000000000000E-01  1.3012760906984E+00  2.3641750046632E-01
    78  7.7000000000000E-01  1.2824972057998E+00  2.8391860416939E-01
    79  7.8000000000000E-01  1.2624916507831E+00  3.3169270404873E-01
    80  7.9000000000000E-01  1.2413097640650E+00  3.7962803372424E-01
    81  8.0000000000000E-01  1.2190040243653E+00  4.2761226498250E-01
    82  8.1000000000000E-01  1.1956288800542E+00  4.7553286863850E-01
    83  8.2000000000000E-01  1.1712405748452E+00  5.2327747464126E-01
    84  8.3000000000000E-01  1.1458969704278E+00  5.7073423011456E-01
    85  8.4000000000000E-01  1.1196573666384E+00  6.1779215403638E-01
    86  8.5000000000000E-01  1.0925823197713E+00  6.6434148727890E-01
    87  8.6000000000000E-01  1.0647334596329E+00  7.1027403675310E-01
    88  8.7000000000000E-01  1.0361733059392E+00  7.5548351243030E-01
    89  8.8000000000000E-01  1.0069650846544E+00  7.9986585604500E-01
    90  8.9000000000000E-01  9.7717254486182E-01  8.4331956032099E-01
    91  9.0000000000000E-01  9.4685977675074E-01  8.8574597760426E-01
    92  9.1000000000000E-01  9.1609103129316E-01  9.2704961683234E-01
    93  9.2000000000000E-01  8.8493054217154E-01  9.6713842781978E-01
    94  9.3000000000000E-01  8.5344235050567E-01  1.0059240718939E+00
    95  9.4000000000000E-01  8.2169013291068E-01  1.0433221779726E+00
    96  9.5000000000000E-01  7.8973703340026E-01  1.0792525832365E+00
    97  9.6000000000000E-01  7.5764549963038E-01  1.1136395576144E+00
    98  9.7000000000000E-01  7.2547712395728E-01  1.1464120113651E+00