Co    ONCVPSP-4.0.1  r_core=   1.60830   2.15610   2.09256
     27.0000     17.0000      230118    zatom,zion,pspd
     8       2   2     4   600     0    pspcod,pspxc,lmax,lloc,mmax,r2well
  5.99000000  6.00000000  0.00000000    rchrg fchrg qchrg
     2     2     2     0     0    nproj
     1     1           extension_switch
   0                         6.8521534712665E+00  1.2292302218854E+00
     1  0.0000000000000E+00  2.0888302199040E-10 -6.6221997330196E-10
     2  1.0000000000000E-02  8.4965475913251E-02 -1.4800947480099E-02
     3  2.0000000000000E-02  1.6971468572726E-01 -2.9503673493776E-02
     4  3.0000000000000E-02  2.5403185827066E-01 -4.4009782110565E-02
     5  4.0000000000000E-02  3.3770221373487E-01 -5.8220538230278E-02
     6  5.0000000000000E-02  4.2051246306870E-01 -7.2036722222173E-02
     7  6.0000000000000E-02  5.0225131167709E-01 -8.5358513154160E-02
     8  7.0000000000000E-02  5.8270996860894E-01 -9.8085409351783E-02
     9  8.0000000000000E-02  6.6168266220981E-01 -1.1011619436452E-01
    10  9.0000000000000E-02  7.3896716296094E-01 -1.2134895560794E-01
    11  1.0000000000000E-01  8.1436531393008E-01 -1.3168116200669E-01
    12  1.1000000000000E-01  8.8768356892760E-01 -1.4100980589928E-01
    13  1.2000000000000E-01  9.5873353809806E-01 -1.4923161329701E-01
    14  1.3000000000000E-01  1.0273325402904E+00 -1.5624332533469E-01
    15  1.4000000000000E-01  1.0933041611442E+00 -1.6194205242765E-01
    16  1.5000000000000E-01  1.1564788154140E+00 -1.6622570128013E-01
    17  1.6000000000000E-01  1.2166943116336E+00 -1.6899347349365E-01
    18  1.7000000000000E-01  1.2737964168073E+00 -1.7014643312329E-01
    19  1.8000000000000E-01  1.3276394184120E+00 -1.6958813914689E-01
    20  1.9000000000000E-01  1.3780866806094E+00 -1.6722533746744E-01
    21  2.0000000000000E-01  1.4250111912092E+00 -1.6296870578586E-01
    22  2.1000000000000E-01  1.4682960956023E+00 -1.5673364347918E-01
    23  2.2000000000000E-01  1.5078352135991E+00 -1.4844109751786E-01
    24  2.3000000000000E-01  1.5435335348688E+00 -1.3801841447453E-01
    25  2.4000000000000E-01  1.5753076884973E+00 -1.2540020783106E-01
    26  2.5000000000000E-01  1.6030863820472E+00 -1.1052922909681E-01
    27  2.6000000000000E-01  1.6268108054432E+00 -9.3357230720424E-02
    28  2.7000000000000E-01  1.6464349950032E+00 -7.3845808422155E-02
    29  2.8000000000000E-01  1.6619261530004E+00 -5.1967210399999E-02
    30  2.9000000000000E-01  1.6732649182777E+00 -2.7705100877289E-02
    31  3.0000000000000E-01  1.6804455836371E+00 -1.0552656638537E-03
    32  3.1000000000000E-01  1.6834762559994E+00  2.7973752203393E-02
    33  3.2000000000000E-01  1.6823789556639E+00  5.9360098093835E-02
    34  3.3000000000000E-01  1.6771896514008E+00  9.3068143283317E-02
    35  3.4000000000000E-01  1.6679582285665E+00  1.2904812398201E-01
    36  3.5000000000000E-01  1.6547483879493E+00  1.6723589045971E-01
    37  3.6000000000000E-01  1.6376374736123E+00  2.0755277360134E-01
    38  3.7000000000000E-01  1.6167162286109E+00  2.4990557486155E-01
    39  3.8000000000000E-01  1.5920884780983E+00  2.9418668411213E-01
    40  3.9000000000000E-01  1.5638707400031E+00  3.4027432831411E-01
    41  4.0000000000000E-01  1.5321917641474E+00  3.8803295231720E-01
    42  4.1000000000000E-01  1.4971920013678E+00  4.3731373141829E-01
    43  4.2000000000000E-01  1.4590230048972E+00  4.8795521362225E-01
    44  4.3000000000000E-01  1.4178467669497E+00  5.3978408786692E-01
    45  4.4000000000000E-01  1.3738349941150E+00  5.9261607282641E-01
    46  4.5000000000000E-01  1.3271683258066E+00  6.4625691931682E-01
    47  4.6000000000000E-01  1.2780355006043E+00  7.0050351782116E-01
    48  4.7000000000000E-01  1.2266324758858E+00  7.5514510124859E-01
    49  4.8000000000000E-01  1.1731615066354E+00  8.0996453177022E-01
    50  4.9000000000000E-01  1.1178301897560E+00  8.6473965944724E-01
    51  5.0000000000000E-01  1.0608504805725E+00  9.1924473940838E-01
    52  5.1000000000000E-01  1.0024376885089E+00  9.7325189355411E-01
    53  5.2000000000000E-01  9.4280945913091E-01  1.0265326021812E+00
    54  5.3000000000000E-01  8.8218474987628E-01  1.0788592105389E+00
    55  5.4000000000000E-01  8.2078280684135E-01  1.1300064351560E+00
    56  5.5000000000000E-01  7.5882214994910E-01  1.1797528548186E+00
    57  5.6000000000000E-01  6.9651957370081E-01  1.2278823713307E+00
    58  5.7000000000000E-01  6.3408917050329E-01  1.2741856256477E+00
    59  5.8000000000000E-01  5.7174138327501E-01  1.3184613556346E+00
    60  5.9000000000000E-01  5.0968209366937E-01  1.3605176825481E+00
    61  6.0000000000000E-01  4.4811175181791E-01  1.4001733143655E+00
    62  6.1000000000000E-01  3.8722455299738E-01  1.4372586552639E+00
    63  6.2000000000000E-01  3.2720766606955E-01  1.4716168118725E+00
    64  6.3000000000000E-01  2.6824051794018E-01  1.5031044883549E+00
    65  6.4000000000000E-01  2.1049413764360E-01  1.5315927638996E+00
    66  6.5000000000000E-01  1.5413056299088E-01  1.5569677477905E+00
    67  6.6000000000000E-01  9.9302312034114E-02  1.5791311088507E+00
    68  6.7000000000000E-01  4.6151920907114E-02  1.5980004776911E+00
    69  6.8000000000000E-01 -5.1884510852737E-03  1.6135097218078E+00
    70  6.9000000000000E-01 -5.4597348930231E-02  1.6256090951439E+00
    71  7.0000000000000E-01 -1.0196428237095E-01  1.6342652652222E+00
    72  7.1000000000000E-01 -1.4718992043241E-01  1.6394612223492E+00
    73  7.2000000000000E-01 -1.9018622163713E-01  1.6411960766595E+00
    74  7.3000000000000E-01 -2.3087650205333E-01  1.6394847498891E+00
    75  7.4000000000000E-01 -2.6919544377086E-01  1.6343575697213E+00
    76  7.5000000000000E-01 -3.0508904678623E-01  1.6258597753229E+00
    77  7.6000000000000E-01 -3.3851452759115E-01  1.6140509432606E+00
    78  7.7000000000000E-01 -3.6944016799584E-01  1.5990043433627E+00
    79  7.8000000000000E-01 -3.9784511787628E-01  1.5808062342498E+00
    80  7.9000000000000E-01 -4.2371915561256E-01  1.5595551082066E+00
    81  8.0000000000000E-01 -4.4706240998448E-01  1.5353608948080E+00
    82  8.1000000000000E-01 -4.6788504721175E-01  1.5083441322450E+00
    83  8.2000000000000E-01 -4.8620692667421E-01  1.4786351146432E+00
    84  8.3000000000000E-01 -5.0205722862616E-01  1.4463730228291E+00
    85  8.4000000000000E-01 -5.1547405693533E-01  1.4117050450044E+00
    86  8.5000000000000E-01 -5.2650401953796E-01  1.3747854926553E+00
    87  8.6000000000000E-01 -5.3520178891601E-01  1.3357749157710E+00
    88  8.7000000000000E-01 -5.4162964447980E-01  1.2948392201094E+00
    89  8.8000000000000E-01 -5.4585699828938E-01  1.2521487878460E+00
    90  8.9000000000000E-01 -5.4795990508202E-01  1.2078776015125E+00
    91  9.0000000000000E-01 -5.4802055710177E-01  1.1622023697011E+00
    92  9.1000000000000E-01 -5.4612676376171E-01  1.1153016516111E+00
    93  9.2000000000000E-01 -5.4237141572130E-01  1.0673549761747E+00
    94  9.3000000000000E-01 -5.3685193254076E-01  1.0185419502562E+00
    95  9.4000000000000E-01 -5.2966969269248E-01  9.6904134928696E-01
    96  9.5000000000000E-01 -5.2092944437465E-01  9.1903018272252E-01
    97  9.6000000000000E-01 -5.1073869529478E-01  8.6868272589377E-01
    98  9.7000000000000E-01 -4.9920707937608E-01  8.1816950920554E-01
    99  9.8000000000000E-01 -4.8644569819613E-01  7.6765625522116E-01
   100  9.9000000000000E-01 -4.7256643489782E-01  7.1730275397956E-01
   101  1.0000000000000E+00 -4.5768123832233E-01  6.6726166692773E-01
   102  1.0100000000000E+00 -4.4190137520288E-01  6.1767725012257E-01
   103  1.0200000000000E+00 -4.2533664842801E-01  5.6868398786105E-01
   104  1.0300000000000E+00 -4.0809457963090E-01  5.2040512863253E-01
   105  1.0400000000000E+00 -3.9027955468552E-01  4.7295111624239E-01
   106  1.0500000000000E+00 -3.7199193099992E-01  4.2641790976459E-01
   107  1.0600000000000E+00 -3.5332710882245E-01  3.8088519942690E-01
   108  1.0700000000000E+00 -3.3437457450092E-01  3.3641454884398E-01
   109  1.0800000000000E+00 -3.1521841313878E-01  2.9305366437255E-01
   110  1.0900000000000E+00 -2.9594050094809E-01  2.5085107042067E-01
   111  1.1000000000000E+00 -2.7662144638400E-01  2.0986031545652E-01
   112  1.1100000000000E+00 -2.5734044738011E-01  1.7013949191391E-01
   113  1.1200000000000E+00 -2.3817511495897E-01  1.3175065265338E-01
   114  1.1300000000000E+00 -2.1920126264266E-01  9.4759120090367E-02
   115  1.1400000000000E+00 -2.0049266536482E-01  5.9232701124104E-02
   116  1.1500000000000E+00 -1.8212079042701E-01  2.5240814900608E-02
   117  1.1600000000000E+00 -1.6415450382487E-01 -7.1464572551765E-03
   118  1.1700000000000E+00 -1.4665975590423E-01 -3.7859388673231E-02
   119  1.1800000000000E+00 -1.2969925087782E-01 -6.6829678312150E-02
   120  1.1900000000000E+00 -1.1333210524159E-01 -9.3991561849818E-02
   121  1.2000000000000E+00 -9.7613500556622E-02 -1.1928294768795E-01
   122  1.2100000000000E+00 -8.2594336407123E-02 -1.4264656170867E-01
   123  1.2200000000000E+00 -6.8320889596170E-02 -1.6403108391165E-01
   124  1.2300000000000E+00 -5.4834485794274E-02 -1.8339225961393E-01
   125  1.2400000000000E+00 -4.2171189908521E-02 -2.0069396771952E-01
   126  1.2500000000000E+00 -3.0361521388068E-02 -2.1590922867278E-01
   127  1.2600000000000E+00 -1.9430200526202E-02 -2.2902113509706E-01
   128  1.2700000000000E+00 -9.3959315584276E-03 -2.4002368879174E-01
   129  1.2800000000000E+00 -2.7122799695876E-04 -2.4892252869971E-01
   130  1.2900000000000E+00  7.9377148155896E-03 -2.5573553566325E-01
   131  1.3000000000000E+00  1.5231095505829E-02 -2.6049330126271E-01
   132  1.3100000000000E+00  2.1615582260380E-02 -2.6323962855767E-01
   133  1.3200000000000E+00  2.7103946662750E-02 -2.6403063574145E-01
   134  1.3300000000000E+00  3.1710707447230E-02 -2.6292094879231E-01
   135  1.3400000000000E+00  3.5436278428500E-02 -2.5991311560176E-01
   136  1.3500000000000E+00  3.8351421076716E-02 -2.5523153084376E-01
   137  1.3600000000000E+00  4.0482409857498E-02 -2.4894956037876E-01
   138  1.3700000000000E+00  4.1872981034946E-02 -2.4119181564819E-01
   139  1.3800000000000E+00  4.2570001193745E-02 -2.3208799945986E-01
   140  1.3900000000000E+00  4.2624868353351E-02 -2.2177798453507E-01
   141  1.4000000000000E+00  4.2092839737991E-02 -2.1041016679014E-01
   142  1.4100000000000E+00  4.1032467582993E-02 -1.9814019136914E-01
   143  1.4200000000000E+00  3.9504990562672E-02 -1.8512955140036E-01
   144  1.4300000000000E+00  3.7573688705745E-02 -1.7154408087039E-01
   145  1.4400000000000E+00  3.5303208572150E-02 -1.5755235913375E-01
   146  1.4500000000000E+00  3.2758866013477E-02 -1.4332404608632E-01
   147  1.4600000000000E+00  3.0005934284317E-02 -1.2902816826538E-01
   148  1.4700000000000E+00  2.7108925616935E-02 -1.1483137710737E-01
   149  1.4800000000000E+00  2.4130874604785E-02 -1.0089620126476E-01
   150  1.4900000000000E+00  2.1132631858856E-02 -8.7379315246302E-02
   151  1.5000000000000E+00  1.8172178059913E-02 -7.4429851979056E-02
   152  1.5100000000000E+00  1.5303948586705E-02 -6.2187723742308E-02
   153  1.5200000000000E+00  1.2578260734144E-02 -5.0782236494181E-02
   154  1.5300000000000E+00  1.0040386747359E-02 -4.0329561521333E-02
   155  1.5400000000000E+00  7.7273084105511E-03 -3.0922638806202E-02
   156  1.5500000000000E+00  5.6734501560974E-03 -2.2649717904485E-02
   157  1.5600000000000E+00  3.9095009856317E-03 -1.5591192654482E-02
   158  1.5700000000000E+00  2.4589063284025E-03 -9.8087111110559E-03
   159  1.5800000000000E+00  1.3379666650426E-03 -5.3456274044227E-03
   160  1.5900000000000E+00  5.5501903324773E-04 -2.2239326150564E-03
   161  1.6000000000000E+00  1.1512136758855E-04 -4.6328350880736E-04
   162  1.6100000000000E+00 -5.4535650904827E-06  2.2030197936340E-05
   163  1.6200000000000E+00  1.6079584847365E-06 -6.4843781558172E-06
   164  1.63 -0.  0.
   165  1.64 -0.  0.
   166  1.65  0.  0.
   167  1.66  0.  0.
   168  1.67  0.  0.
   169  1.68  0.  0.
   170  1.69  0.  0.
   171  1.70  0.  0.
   172  1.71  0.  0.
   173  1.72  0.  0.
   174  1.73  0.  0.
   175  1.74  0.  0.
   176  1.75  0.  0.
   177  1.76  0.  0.
   178  1.77  0.  0.
   179  1.78  0.  0.
   180  1.79  0.  0.
   181  1.80  0.  0.
   182  1.81  0.  0.
   183  1.82  0.  0.
   184  1.83  0.  0.
   185  1.84  0.  0.
   186  1.85  0.  0.
   187  1.86  0.  0.
   188  1.87  0.  0.
   189  1.88  0.  0.
   190  1.89  0.  0.
   191  1.90  0.  0.
   192  1.91  0.  0.
   193  1.92  0.  0.
   194  1.93  0.  0.
   195  1.94  0.  0.
   196  1.95  0.  0.
   197  1.96  0.  0.
   198  1.97  0.  0.
   199  1.98  0.  0.
   200  1.99  0.  0.
   201  2.00  0.  0.
   202  2.01  0.  0.
   203  2.02  0.  0.
   204  2.03  0.  0.
   205  2.04  0.  0.
   206  2.05  0.  0.
   207  2.06  0.  0.
   208  2.07  0.  0.
   209  2.08  0.  0.
   210  2.09  0.  0.
   211  2.10  0.  0.
   212  2.11  0.  0.
   213  2.12  0.  0.
   214  2.13  0.  0.
   215  2.14  0.  0.
   216  2.15  0.  0.
   217  2.16  0.  0.
   218  2.17  0.  0.
   219  2.18  0.  0.
   220  2.19  0.  0.
   221  2.20  0.  0.
   222  2.21  0.  0.
   223  2.22  0.  0.
   224  2.23  0.  0.
   225  2.24  0.  0.
   226  2.25  0.  0.
   227  2.26  0.  0.
   228  2.27  0.  0.
   229  2.28  0.  0.
   230  2.29  0.  0.
   231  2.30  0.  0.
   232  2.31  0.  0.
   233  2.32  0.  0.
   234  2.33  0.  0.
   235  2.34  0.  0.
   236  2.35  0.  0.
   237  2.36  0.  0.
   238  2.37  0.  0.
   239  2.38  0.  0.
   240  2.39  0.  0.
   241  2.40  0.  0.
   242  2.41  0.  0.
   243  2.42  0.  0.
   244  2.43  0.  0.
   245  2.44  0.  0.
   246  2.45  0.  0.
   247  2.46  0.  0.
   248  2.47  0.  0.
   249  2.48  0.  0.
   250  2.49  0.  0.
   251  2.50  0.  0.
   252  2.51  0.  0.
   253  2.52  0.  0.
   254  2.53  0.  0.
   255  2.54  0.  0.
   256  2.55  0.  0.
   257  2.56  0.  0.
   258  2.57  0.  0.
   259  2.58  0.  0.
   260  2.59  0.  0.
   261  2.60  0.  0.
   262  2.61  0.  0.
   263  2.62  0.  0.
   264  2.63  0.  0.
   265  2.64  0.  0.
   266  2.65  0.  0.
   267  2.66  0.  0.
   268  2.67  0.  0.
   269  2.68  0.  0.
   270  2.69  0.  0.
   271  2.70  0.  0.
   272  2.71  0.  0.
   273  2.72  0.  0.
   274  2.73  0.  0.
   275  2.74  0.  0.
   276  2.75  0.  0.
   277  2.76  0.  0.
   278  2.77  0.  0.
   279  2.78  0.  0.
   280  2.79  0.  0.
   281  2.80  0.  0.
   282  2.81  0.  0.
   283  2.82  0.  0.
   284  2.83  0.  0.
   285  2.84  0.  0.
   286  2.85  0.  0.
   287  2.86  0.  0.
   288  2.87  0.  0.
   289  2.88  0.  0.
   290  2.89  0.  0.
   291  2.90  0.  0.
   292  2.91  0.  0.
   293  2.92  0.  0.
   294  2.93  0.  0.
   295  2.94  0.  0.
   296  2.95  0.  0.
   297  2.96  0.  0.
   298  2.97  0.  0.
   299  2.98  0.  0.
   300  2.99  0.  0.
   301  3.00  0.  0.
   302  3.01  0.  0.
   303  3.02  0.  0.
   304  3.03  0.  0.
   305  3.04  0.  0.
   306  3.05  0.  0.
   307  3.06  0.  0.
   308  3.07  0.  0.
   309  3.08  0.  0.
   310  3.09  0.  0.
   311  3.10  0.  0.
   312  3.11  0.  0.
   313  3.12  0.  0.
   314  3.13  0.  0.
   315  3.14  0.  0.
   316  3.15  0.  0.
   317  3.16  0.  0.
   318  3.17  0.  0.
   319  3.18  0.  0.
   320  3.19  0.  0.
   321  3.20  0.  0.
   322  3.21  0.  0.
   323  3.22  0.  0.
   324  3.23  0.  0.
   325  3.24  0.  0.
   326  3.25  0.  0.
   327  3.26  0.  0.
   328  3.27  0.  0.
   329  3.28  0.  0.
   330  3.29  0.  0.
   331  3.30  0.  0.
   332  3.31  0.  0.
   333  3.32  0.  0.
   334  3.33  0.  0.
   335  3.34  0.  0.
   336  3.35  0.  0.
   337  3.36  0.  0.
   338  3.37  0.  0.
   339  3.38  0.  0.
   340  3.39  0.  0.
   341  3.40  0.  0.
   342  3.41  0.  0.
   343  3.42  0.  0.
   344  3.43  0.  0.
   345  3.44  0.  0.
   346  3.45  0.  0.
   347  3.46  0.  0.
   348  3.47  0.  0.
   349  3.48  0.  0.
   350  3.49  0.  0.
   351  3.50  0.  0.
   352  3.51  0.  0.
   353  3.52  0.  0.
   354  3.53  0.  0.
   355  3.54  0.  0.
   356  3.55  0.  0.
   357  3.56  0.  0.
   358  3.57  0.  0.
   359  3.58  0.  0.
   360  3.59  0.  0.
   361  3.60  0.  0.
   362  3.61  0.  0.
   363  3.62  0.  0.
   364  3.63  0.  0.
   365  3.64  0.  0.
   366  3.65  0.  0.
   367  3.66  0.  0.
   368  3.67  0.  0.
   369  3.68  0.  0.
   370  3.69  0.  0.
   371  3.70  0.  0.
   372  3.71  0.  0.
   373  3.72  0.  0.
   374  3.73  0.  0.
   375  3.74  0.  0.
   376  3.75  0.  0.
   377  3.76  0.  0.
   378  3.77  0.  0.
   379  3.78  0.  0.
   380  3.79  0.  0.
   381  3.80  0.  0.
   382  3.81  0.  0.
   383  3.82  0.  0.
   384  3.83  0.  0.
   385  3.84  0.  0.
   386  3.85  0.  0.
   387  3.86  0.  0.
   388  3.87  0.  0.
   389  3.88  0.  0.
   390  3.89  0.  0.
   391  3.90  0.  0.
   392  3.91  0.  0.
   393  3.92  0.  0.
   394  3.93  0.  0.
   395  3.94  0.  0.
   396  3.95  0.  0.
   397  3.96  0.  0.
   398  3.97  0.  0.
   399  3.98  0.  0.
   400  3.99  0.  0.
   401  4.00  0.  0.
   402  4.01  0.  0.
   403  4.02  0.  0.
   404  4.03  0.  0.
   405  4.04  0.  0.
   406  4.05  0.  0.
   407  4.06  0.  0.
   408  4.07  0.  0.
   409  4.08  0.  0.
   410  4.09  0.  0.
   411  4.10  0.  0.
   412  4.11  0.  0.
   413  4.12  0.  0.
   414  4.13  0.  0.
   415  4.14  0.  0.
   416  4.15  0.  0.
   417  4.16  0.  0.
   418  4.17  0.  0.
   419  4.18  0.  0.
   420  4.19  0.  0.
   421  4.20  0.  0.
   422  4.21  0.  0.
   423  4.22  0.  0.
   424  4.23  0.  0.
   425  4.24  0.  0.
   426  4.25  0.  0.
   427  4.26  0.  0.
   428  4.27  0.  0.
   429  4.28  0.  0.
   430  4.29  0.  0.
   431  4.30  0.  0.
   432  4.31  0.  0.
   433  4.32  0.  0.
   434  4.33  0.  0.
   435  4.34  0.  0.
   436  4.35  0.  0.
   437  4.36  0.  0.
   438  4.37  0.  0.
   439  4.38  0.  0.
   440  4.39  0.  0.
   441  4.40  0.  0.
   442  4.41  0.  0.
   443  4.42  0.  0.
   444  4.43  0.  0.
   445  4.44  0.  0.
   446  4.45  0.  0.
   447  4.46  0.  0.
   448  4.47  0.  0.
   449  4.48  0.  0.
   450  4.49  0.  0.
   451  4.50  0.  0.
   452  4.51  0.  0.
   453  4.52  0.  0.
   454  4.53  0.  0.
   455  4.54  0.  0.
   456  4.55  0.  0.
   457  4.56  0.  0.
   458  4.57  0.  0.
   459  4.58  0.  0.
   460  4.59  0.  0.
   461  4.60  0.  0.
   462  4.61  0.  0.
   463  4.62  0.  0.
   464  4.63  0.  0.
   465  4.64  0.  0.
   466  4.65  0.  0.
   467  4.66  0.  0.
   468  4.67  0.  0.
   469  4.68  0.  0.
   470  4.69  0.  0.
   471  4.70  0.  0.
   472  4.71  0.  0.
   473  4.72  0.  0.
   474  4.73  0.  0.
   475  4.74  0.  0.
   476  4.75  0.  0.
   477  4.76  0.  0.
   478  4.77  0.  0.
   479  4.78  0.  0.
   480  4.79  0.  0.
   481  4.80  0.  0.
   482  4.81  0.  0.
   483  4.82  0.  0.
   484  4.83  0.  0.
   485  4.84  0.  0.
   486  4.85  0.  0.
   487  4.86  0.  0.
   488  4.87  0.  0.
   489  4.88  0.  0.
   490  4.89  0.  0.
   491  4.90  0.  0.
   492  4.91  0.  0.
   493  4.92  0.  0.
   494  4.93  0.  0.
   495  4.94  0.  0.
   496  4.95  0.  0.
   497  4.96  0.  0.
   498  4.97  0.  0.
   499  4.98  0.  0.
   500  4.99  0.  0.
   501  5.00  0.  0.
   502  5.01  0.  0.
   503  5.02  0.  0.
   504  5.03  0.  0.
   505  5.04  0.  0.
   506  5.05  0.  0.
   507  5.06  0.  0.
   508  5.07  0.  0.
   509  5.08  0.  0.
   510  5.09  0.  0.
   511  5.10  0.  0.
   512  5.11  0.  0.
   513  5.12  0.  0.
   514  5.13  0.  0.
   515  5.14  0.  0.
   516  5.15  0.  0.
   517  5.16  0.  0.
   518  5.17  0.  0.
   519  5.18  0.  0.
   520  5.19  0.  0.
   521  5.20  0.  0.
   522  5.21  0.  0.
   523  5.22  0.  0.
   524  5.23  0.  0.
   525  5.24  0.  0.
   526  5.25  0.  0.
   527  5.26  0.  0.
   528  5.27  0.  0.
   529  5.28  0.  0.
   530  5.29  0.  0.
   531  5.30  0.  0.
   532  5.31  0.  0.
   533  5.32  0.  0.
   534  5.33  0.  0.
   535  5.34  0.  0.
   536  5.35  0.  0.
   537  5.36  0.  0.
   538  5.37  0.  0.
   539  5.38  0.  0.
   540  5.39  0.  0.
   541  5.40  0.  0.
   542  5.41  0.  0.
   543  5.42  0.  0.
   544  5.43  0.  0.
   545  5.44  0.  0.
   546  5.45  0.  0.
   547  5.46  0.  0.
   548  5.47  0.  0.
   549  5.48  0.  0.
   550  5.49  0.  0.
   551  5.50  0.  0.
   552  5.51  0.  0.
   553  5.52  0.  0.
   554  5.53  0.  0.
   555  5.54  0.  0.
   556  5.55  0.  0.
   557  5.56  0.  0.
   558  5.57  0.  0.
   559  5.58  0.  0.
   560  5.59  0.  0.
   561  5.60  0.  0.
   562  5.61  0.  0.
   563  5.62  0.  0.
   564  5.63  0.  0.
   565  5.64  0.  0.
   566  5.65  0.  0.
   567  5.66  0.  0.
   568  5.67  0.  0.
   569  5.68  0.  0.
   570  5.69  0.  0.
   571  5.70  0.  0.
   572  5.71  0.  0.
   573  5.72  0.  0.
   574  5.73  0.  0.
   575  5.74  0.  0.
   576  5.75  0.  0.
   577  5.76  0.  0.
   578  5.77  0.  0.
   579  5.78  0.  0.
   580  5.79  0.  0.
   581  5.80  0.  0.
   582  5.81  0.  0.
   583  5.82  0.  0.
   584  5.83  0.  0.
   585  5.84  0.  0.
   586  5.85  0.  0.
   587  5.86  0.  0.
   588  5.87  0.  0.
   589  5.88  0.  0.
   590  5.89  0.  0.
   591  5.90  0.  0.
   592  5.91  0.  0.
   593  5.92  0.  0.
   594  5.93  0.  0.
   595  5.94  0.  0.
   596  5.95  0.  0.
   597  5.96  0.  0.
   598  5.97  0.  0.
   599  5.98  0.  0.
   600  5.99  0.  0.
   1                        -4.6711597456857E+00 -9.4565292696380E-01
     1  0.0000000000000E+00 -8.3410905959980E-10  9.2100543858109E-10
     2  1.0000000000000E-02 -1.9785483053230E-03  9.0665404322776E-04
     3  2.0000000000000E-02 -7.9016139218024E-03  3.6180311873615E-03
     4  3.0000000000000E-02 -1.7731532469121E-02  8.1084435466768E-03
     5  4.0000000000000E-02 -3.1405774602114E-02  1.4335301060166E-02
     6  5.0000000000000E-02 -4.8837311412052E-02  2.2239444410173E-02
     7  6.0000000000000E-02 -6.9915122934533E-02  3.1745607712635E-02
     8  7.0000000000000E-02 -9.4504846732614E-02  4.2763007611444E-02
     9  8.0000000000000E-02 -1.2244956268971E-01  5.5186054488498E-02
    10  9.0000000000000E-02 -1.5357070933642E-01  6.8895180609215E-02
    11  1.0000000000000E-01 -1.8766912625367E-01  8.3757779169067E-02
    12  1.1000000000000E-01 -2.2452621634670E-01  9.9629247393914E-02
    13  1.2000000000000E-01 -2.6390522107384E-01  1.1635412608319E-01
    14  1.3000000000000E-01 -3.0555260104697E-01  1.3376732727447E-01
    15  1.4000000000000E-01 -3.4919951379890E-01  1.5169544105660E-01
    16  1.5000000000000E-01 -3.9456337994257E-01  1.6995811197020E-01
    17  1.6000000000000E-01 -4.4134952842960E-01  1.8836947491445E-01
    18  1.7000000000000E-01 -4.8925291115613E-01  2.0673964002991E-01
    19  1.8000000000000E-01 -5.3795987676315E-01  2.2487621565349E-01
    20  1.9000000000000E-01 -5.8714999314089E-01  2.4258585814524E-01
    21  2.0000000000000E-01 -6.3649790787264E-01  2.5967583717048E-01
    22  2.1000000000000E-01 -6.8567523564554E-01  2.7595560488586E-01
    23  2.2000000000000E-01 -7.3435246151463E-01  2.9123835742640E-01
    24  2.3000000000000E-01 -7.8220084883373E-01  3.0534257712141E-01
    25  2.4000000000000E-01 -8.2889434066118E-01  3.1809354398256E-01
    26  2.5000000000000E-01 -8.7411144351227E-01  3.2932480520413E-01
    27  2.6000000000000E-01 -9.1753708246054E-01  3.3887959169481E-01
    28  2.7000000000000E-01 -9.5886441678793E-01  3.4661217101861E-01
    29  2.8000000000000E-01 -9.9779660564669E-01  3.5238912655827E-01
    30  2.9000000000000E-01 -1.0340485135223E+00  3.5609055322461E-01
    31  3.0000000000000E-01 -1.0673483456746E+00  3.5761116061618E-01
    32  3.1000000000000E-01 -1.0974392041818E+00  3.5686127518104E-01
    33  3.2000000000000E-01 -1.1240805557133E+00  3.5376773364228E-01
    34  3.3000000000000E-01 -1.1470496027148E+00  3.4827466071622E-01
    35  3.4000000000000E-01 -1.1661425502916E+00  3.4034412497054E-01
    36  3.5000000000000E-01 -1.1811757617271E+00  3.2995666753461E-01
    37  3.6000000000000E-01 -1.1919867962635E+00  3.1711169927847E-01
    38  3.7000000000000E-01 -1.1984353234972E+00  3.0182776301445E-01
    39  3.8000000000000E-01 -1.2004039095039E+00  2.8414265823924E-01
    40  3.9000000000000E-01 -1.1977986705887E+00  2.6411342691730E-01
    41  4.0000000000000E-01 -1.1905497913685E+00  2.4181619980197E-01
    42  4.1000000000000E-01 -1.1786119047146E+00  2.1734590379071E-01
    43  4.2000000000000E-01 -1.1619643319207E+00  1.9081583180847E-01
    44  4.3000000000000E-01 -1.1406111823019E+00  1.6235707770123E-01
    45  4.4000000000000E-01 -1.1145813122717E+00  1.3211783959227E-01
    46  4.5000000000000E-01 -1.0839281447832E+00  1.0026259610015E-01
    47  4.6000000000000E-01 -1.0487293508455E+00  6.6971160732876E-02
    48  4.7000000000000E-01 -1.0090863956407E+00  3.2437620649241E-02
    49  4.8000000000000E-01 -9.6512395255841E-01 -3.1308331882379E-03
    50  4.9000000000000E-01 -9.1698918922962E-01 -3.9515176662842E-02
    51  5.0000000000000E-01 -8.6485093038309E-01 -7.6485915423619E-02
    52  5.1000000000000E-01 -8.0889870304629E-01 -1.1380453087955E-01
    53  5.2000000000000E-01 -7.4934167027952E-01 -1.5122499947389E-01
    54  5.3000000000000E-01 -6.8640746025353E-01 -1.8849537491731E-01
    55  5.4000000000000E-01 -6.2034089805633E-01 -2.2535942260564E-01
    56  5.5000000000000E-01 -5.5140264814195E-01 -2.6155829507226E-01
    57  5.6000000000000E-01 -4.7986777580789E-01 -2.9683223702984E-01
    58  5.7000000000000E-01 -4.0602423650745E-01 -3.3092230834188E-01
    59  5.8000000000000E-01 -3.3017130216535E-01 -3.6357211313368E-01
    60  5.9000000000000E-01 -2.5261793396858E-01 -3.9452952320443E-01
    61  6.0000000000000E-01 -1.7368111134771E-01 -4.2354838393803E-01
    62  6.1000000000000E-01 -9.3684127046028E-02 -4.5039019102760E-01
    63  6.2000000000000E-01 -1.2954858294272E-02 -4.7482572652819E-01
    64  6.3000000000000E-01  6.8175975832397E-02 -4.9663664302881E-01
    65  6.4000000000000E-01  1.4937656080137E-01 -5.1561698508928E-01
    66  6.5000000000000E-01  2.3031572674308E-01 -5.3157463751275E-01
    67  6.6000000000000E-01  3.1066467241751E-01 -5.4433269052008E-01
    68  6.7000000000000E-01  3.9009866332048E-01 -5.5373071245065E-01
    69  6.8000000000000E-01  4.6829869446045E-01 -5.5962592123299E-01
    70  6.9000000000000E-01  5.4495310862787E-01 -5.6189424654025E-01
    71  7.0000000000000E-01  6.1975916132160E-01 -5.6043127526593E-01
    72  7.1000000000000E-01  6.9242452388773E-01 -5.5515307371752E-01
    73  7.2000000000000E-01  7.6266871686224E-01 -5.4599688072343E-01
    74  7.3000000000000E-01  8.3022446598716E-01 -5.3292166667561E-01
    75  7.4000000000000E-01  8.9483897388569E-01 -5.1590855437906E-01
    76  7.5000000000000E-01  9.5627510093221E-01 -4.9496109844450E-01
    77  7.6000000000000E-01  1.0143124494338E+00 -4.7010542083284E-01
    78  7.7000000000000E-01  1.0687483458463E+00 -4.4139020103562E-01
    79  7.8000000000000E-01  1.1193987163767E+00 -4.0888652024464E-01
    80  7.9000000000000E-01  1.1660988519688E+00 -3.7268755972254E-01
    81  8.0000000000000E-01  1.2087040593286E+00 -3.3290815442574E-01
    82  8.1000000000000E-01  1.2470901953137E+00 -2.8968420374706E-01
    83  8.2000000000000E-01  1.2811540826799E+00 -2.4317194203115E-01
    84  8.3000000000000E-01  1.3108138058555E+00 -1.9354707226616E-01
    85  8.4000000000000E-01  1.3360088860732E+00 -1.4100376706483E-01
    86  8.5000000000000E-01  1.3567003358573E+00 -8.5753541713011E-02
    87  8.6000000000000E-01  1.3728705935027E+00 -2.8024004679027E-02
    88  8.7000000000000E-01  1.3845233388170E+00  3.1942508459882E-02
    89  8.8000000000000E-01  1.3916831920071E+00  9.3890411211336E-02
    90  8.9000000000000E-01  1.3943952981771E+00  1.5755244557053E-01
    91  9.0000000000000E-01  1.3927248004674E+00  2.2265135733303E-01
    92  9.1000000000000E-01  1.3867562053949E+00  2.8890165969274E-01
    93  9.2000000000000E-01  1.3765926444558E+00  3.5601147723702E-01
    94  9.3000000000000E-01  1.3623550365153E+00  4.2368446225081E-01
    95  9.4000000000000E-01  1.3441811559386E+00  4.9162177510445E-01
    96  9.5000000000000E-01  1.3222246118092E+00  5.5952412042466E-01
    97  9.6000000000000E-01  1.2966537439283E+00  6.2709383073408E-01
    98  9.7000000000000E-01  1.2676504416003E+00  6.9403698928954E-01
    99  9.8000000000000E-01  1.2354088914774E+00  7.6006558395139E-01
   100  9.9000000000000E-01  1.2001342609581E+00  8.2489968407252E-01
   101  1.0000000000000E+00  1.1620413238190E+00  8.8826963260375E-01
   102  1.0100000000000E+00  1.1213530348964E+00  9.4991824586858E-01
   103  1.0200000000000E+00  1.0782990607278E+00  1.0096030137613E+00
   104  1.0300000000000E+00  1.0331142731193E+00  1.0670982934644E+00
   105  1.0400000000000E+00  9.8603721261339E-01  1.1221974901610E+00
   106  1.0500000000000E+00  9.3730852885506E-01  1.1747152188317E+00
   107  1.0600000000000E+00  8.8716940294852E-01  1.2244894347096E+00
   108  1.0700000000000E+00  8.3585995361632E-01  1.2713835078052E+00
   109  1.0800000000000E+00  7.8361676876738E-01  1.3152846161637E+00
   110  1.0900000000000E+00  7.3066947396797E-01  1.3560956166190E+00
   111  1.1000000000000E+00  6.7723957187041E-01  1.3937323742212E+00
   112  1.1100000000000E+00  6.2354011454896E-01  1.4281236173417E+00
   113  1.1200000000000E+00  5.6977541290404E-01  1.4592107545204E+00
   114  1.1300000000000E+00  5.1614078338665E-01  1.4869476601020E+00
   115  1.1400000000000E+00  4.6282232990636E-01  1.5113004270941E+00
   116  1.1500000000000E+00  4.0999676005630E-01  1.5322470902397E+00
   117  1.1600000000000E+00  3.5783123467879E-01  1.5497773219972E+00
   118  1.1700000000000E+00  3.0648324976819E-01  1.5638921040748E+00
   119  1.1800000000000E+00  2.5610054968531E-01  1.5746033771008E+00
   120  1.1900000000000E+00  2.0682107064005E-01  1.5819336709330E+00
   121  1.2000000000000E+00  1.5877291338601E-01  1.5859157180111E+00
   122  1.2100000000000E+00  1.1207434406179E-01  1.5865920520521E+00
   123  1.2200000000000E+00  6.6833822108348E-02  1.5840145942655E+00
   124  1.2300000000000E+00  2.3150054190283E-02  1.5782442291388E+00
   125  1.2400000000000E+00 -1.8887926950151E-02  1.5693503717033E+00
   126  1.2500000000000E+00 -5.9200659773247E-02  1.5574105280485E+00
   127  1.2600000000000E+00 -9.7718128417367E-02  1.5425098507051E+00