Ni    ONCVPSP-4.0.1  r_core=   1.72718   2.23383   2.00579
     28.0000     18.0000      230118    zatom,zion,pspd
     8       2   2     4   600     0    pspcod,pspxc,lmax,lloc,mmax,r2well
  5.99000000  3.00000000  0.00000000    rchrg fchrg qchrg
     2     2     2     0     0    nproj
     1     1           extension_switch
   0                         6.6539220520196E+00  9.0747963660375E-01
     1  0.0000000000000E+00  9.1231355803245E-11 -6.0511121113827E-10
     2  1.0000000000000E-02  8.8327052234056E-02 -2.8126375869863E-02
     3  2.0000000000000E-02  1.7641378673834E-01 -5.6088181507773E-02
     4  3.0000000000000E-02  2.6402059229532E-01 -8.3720951171351E-02
     5  4.0000000000000E-02  3.5090927001101E-01 -1.1086043701713E-01
     6  5.0000000000000E-02  4.3684373770068E-01 -1.3734274019347E-01
     7  6.0000000000000E-02  5.2159073207711E-01 -1.6300446807106E-01
     8  7.0000000000000E-02  6.0492050789994E-01 -1.8768292560430E-01
     9  8.0000000000000E-02  6.8660753315336E-01 -2.1121634821235E-01
    10  9.0000000000000E-02  7.6643117920823E-01 -2.3344418282542E-01
    11  1.0000000000000E-01  8.4417640479529E-01 -2.5420742287105E-01
    12  1.1000000000000E-01  9.1963443247101E-01 -2.7334900198639E-01
    13  1.2000000000000E-01  9.9260341609845E-01 -2.9071425014761E-01
    14  1.3000000000000E-01  1.0628890976964E+00 -3.0615141472183E-01
    15  1.4000000000000E-01  1.1303054518321E+00 -3.1951224768352E-01
    16  1.5000000000000E-01  1.1946753155526E+00 -3.3065265891397E-01
    17  1.6000000000000E-01  1.2558310016648E+00 -3.3943343413543E-01
    18  1.7000000000000E-01  1.3136148929967E+00 -3.4572101464022E-01
    19  1.8000000000000E-01  1.3678800150978E+00 -3.4938833457686E-01
    20  1.9000000000000E-01  1.4184905846727E+00 -3.5031571017107E-01
    21  2.0000000000000E-01  1.4653225308935E+00 -3.4839177390880E-01
    22  2.1000000000000E-01  1.5082639866049E+00 -3.4351444540942E-01
    23  2.2000000000000E-01  1.5472157463275E+00 -3.3559192949285E-01
    24  2.3000000000000E-01  1.5820916878780E+00 -3.2454373081037E-01
    25  2.4000000000000E-01  1.6128191543718E+00 -3.1030167338691E-01
    26  2.5000000000000E-01  1.6393392933500E+00 -2.9281091252817E-01
    27  2.6000000000000E-01  1.6616073497821E+00 -2.7203092579767E-01
    28  2.7000000000000E-01  1.6795929097478E+00 -2.4793646918013E-01
    29  2.8000000000000E-01  1.6932800916885E+00 -2.2051848413332E-01
    30  2.9000000000000E-01  1.7026676822486E+00 -1.8978494100248E-01
    31  3.0000000000000E-01  1.7077692139035E+00 -1.5576160423753E-01
    32  3.1000000000000E-01  1.7086129817829E+00 -1.1849270502325E-01
    33  3.2000000000000E-01  1.7052419973638E+00 -7.8041507309412E-02
    34  3.3000000000000E-01  1.6977138770061E+00 -3.4490753814134E-02
    35  3.4000000000000E-01  1.6861006636554E+00  1.2057020630672E-02
    36  3.5000000000000E-01  1.6704885804174E+00  6.1479320022475E-02
    37  3.6000000000000E-01  1.6509777151396E+00  1.1363367285065E-01
    38  3.7000000000000E-01  1.6276816355902E+00  1.6835778152044E-01
    39  3.8000000000000E-01  1.6007269353194E+00  2.2546984301403E-01
    40  3.9000000000000E-01  1.5702527108042E+00  2.8476904653674E-01
    41  4.0000000000000E-01  1.5364099710202E+00  3.4603625202414E-01
    42  4.1000000000000E-01  1.4993609811418E+00  4.0903485139142E-01
    43  4.2000000000000E-01  1.4592785426417E+00  4.7351181231041E-01
    44  4.3000000000000E-01  1.4163452126357E+00  5.3919890212979E-01
    45  4.4000000000000E-01  1.3707524658896E+00  6.0581408733472E-01
    46  4.5000000000000E-01  1.3226998034733E+00  6.7306310170415E-01
    47  4.6000000000000E-01  1.2723938125928E+00  7.4064117409519E-01
    48  4.7000000000000E-01  1.2200471826597E+00  8.0823490459596E-01
    49  4.8000000000000E-01  1.1658776831535E+00  8.7552427567063E-01
    50  4.9000000000000E-01  1.1101071092925E+00  9.4218478290473E-01
    51  5.0000000000000E-01  1.0529602019461E+00  1.0078896680744E+00
    52  5.1000000000000E-01  9.9466354858776E-01  1.0723122355392E+00
    53  5.2000000000000E-01  9.3544447240019E-01  1.1351282314225E+00
    54  5.3000000000000E-01  8.7552991689160E-01  1.1960182637187E+00
    55  5.4000000000000E-01  8.1514533356884E-01  1.2546702403836E+00
    56  5.5000000000000E-01  7.5451358032455E-01  1.3107818016292E+00
    57  5.6000000000000E-01  6.9385383823665E-01  1.3640627220905E+00
    58  5.7000000000000E-01  6.3338055444328E-01  1.4142372582618E+00
    59  5.8000000000000E-01  5.7330241864372E-01  1.4610464166225E+00
    60  5.9000000000000E-01  5.1382138058594E-01  1.5042501182040E+00
    61  6.0000000000000E-01  4.5513171563537E-01  1.5436292359762E+00
    62  6.1000000000000E-01  3.9741914517751E-01  1.5789874823632E+00
    63  6.2000000000000E-01  3.4086001819368E-01  1.6101531254164E+00
    64  6.3000000000000E-01  2.8562055986696E-01  1.6369805136761E+00
    65  6.4000000000000E-01  2.3185619253012E-01  1.6593513915098E+00
    66  6.5000000000000E-01  1.7971093366412E-01  1.6771759887250E+00
    67  6.6000000000000E-01  1.2931687500192E-01  1.6903938704681E+00
    68  6.7000000000000E-01  8.0793746094986E-02  1.6989745358354E+00
    69  6.8000000000000E-01  3.4248564968005E-02  1.7029177561802E+00
    70  6.9000000000000E-01 -1.0224622271139E-02  1.7022536467926E+00
    71  7.0000000000000E-01 -5.2544911773772E-02  1.6970424683942E+00
    72  7.1000000000000E-01 -9.2644621934413E-02  1.6873741577093E+00
    73  7.2000000000000E-01 -1.3046928348405E-01  1.6733675891946E+00
    74  7.3000000000000E-01 -1.6597754092548E-01  1.6551695727985E+00
    75  7.4000000000000E-01 -1.9914096728550E-01  1.6329535953314E+00
    76  7.5000000000000E-01 -2.2994379486751E-01  1.6069183156254E+00
    77  7.6000000000000E-01 -2.5838256535474E-01  1.5772858261030E+00
    78  7.7000000000000E-01 -2.8446570322975E-01  1.5442996956290E+00
    79  7.8000000000000E-01 -3.0821301703186E-01  1.5082228105438E+00
    80  7.9000000000000E-01 -3.2965513346385E-01  1.4693350325495E+00
    81  8.0000000000000E-01 -3.4883286977612E-01  1.4279306936109E+00
    82  8.1000000000000E-01 -3.6579655019496E-01  1.3843159492164E+00
    83  8.2000000000000E-01 -3.8060527241800E-01  1.3388060122059E+00
    84  8.3000000000000E-01 -3.9332613037130E-01  1.2917222898983E+00
    85  8.4000000000000E-01 -4.0403339950715E-01  1.2433894474314E+00
    86  8.5000000000000E-01 -4.1280769091930E-01  1.1941324200619E+00
    87  8.6000000000000E-01 -4.1973508046448E-01  1.1442733966639E+00
    88  8.7000000000000E-01 -4.2490621890753E-01  1.0941287958241E+00
    89  8.8000000000000E-01 -4.2841542885654E-01  1.0440062547626E+00
    90  8.9000000000000E-01 -4.3035979392897E-01  9.9420164985294E-01
    91  9.0000000000000E-01 -4.3083824519557E-01  9.4499616576759E-01
    92  9.1000000000000E-01 -4.2995064949406E-01  8.9665342829428E-01
    93  9.2000000000000E-01 -4.2779690369643E-01  8.4941671366657E-01
    94  9.3000000000000E-01 -4.2447603846222E-01  8.0350624487753E-01
    95  9.4000000000000E-01 -4.2008533442407E-01  7.5911658293333E-01
    96  9.5000000000000E-01 -4.1471945314253E-01  7.1641411839871E-01
    97  9.6000000000000E-01 -4.0846958454437E-01  6.7553466593172E-01
    98  9.7000000000000E-01 -4.0142261193376E-01  6.3658116184637E-01
    99  9.8000000000000E-01 -3.9366029504906E-01  5.9962146212460E-01
   100  9.9000000000000E-01 -3.8525847104082E-01  5.6468623576656E-01
   101  1.0000000000000E+00 -3.7628627267842E-01  5.3176694596571E-01
   102  1.0100000000000E+00 -3.6680536210226E-01  5.0081390626528E-01
   103  1.0200000000000E+00 -3.5686918202606E-01  4.7173442420905E-01
   104  1.0300000000000E+00 -3.4652245896222E-01  4.4439264585882E-01
   105  1.0400000000000E+00 -3.3580357915355E-01  4.1862853567439E-01
   106  1.0500000000000E+00 -3.2474775743318E-01  3.9427987586704E-01
   107  1.0600000000000E+00 -3.1338773036972E-01  3.7118587635783E-01
   108  1.0700000000000E+00 -3.0175416747301E-01  3.4918877462150E-01
   109  1.0800000000000E+00 -2.8987607410163E-01  3.2813539704555E-01
   110  1.0900000000000E+00 -2.7778118392027E-01  3.0787868416250E-01
   111  1.1000000000000E+00 -2.6549633504466E-01  2.8827915398429E-01
   112  1.1100000000000E+00 -2.5304782478131E-01  2.6920628229752E-01
   113  1.1200000000000E+00 -2.4046173817748E-01  2.5053977981777E-01
   114  1.1300000000000E+00 -2.2776424597452E-01  2.3217074744400E-01
   115  1.1400000000000E+00 -2.1498186799584E-01  2.1400269246247E-01
   116  1.1500000000000E+00 -2.0214169849832E-01  1.9595239042513E-01
   117  1.1600000000000E+00 -1.8927159056124E-01  1.7795057951531E-01
   118  1.1700000000000E+00 -1.7640029717887E-01  1.5994247652001E-01
   119  1.1800000000000E+00 -1.6355756734517E-01  1.4188810597709E-01
   120  1.1900000000000E+00 -1.5077419607377E-01  1.2376243667337E-01
   121  1.2000000000000E+00 -1.3808202796247E-01  1.0555532234583E-01
   122  1.2100000000000E+00 -1.2551391459161E-01  8.7271246193701E-02
   123  1.2200000000000E+00 -1.1310362672060E-01  6.8928871569603E-02
   124  1.2300000000000E+00 -1.0088572291215E-01  5.0560403957546E-02
   125  1.2400000000000E+00 -8.8895376861472E-02  3.2210772037096E-02
   126  1.2500000000000E+00 -7.7168166321305E-02  1.3936638205647E-02
   127  1.2600000000000E+00 -6.5739827094080E-02 -4.1947486139115E-03
   128  1.2700000000000E+00 -5.4645976094350E-02 -2.2106842776089E-02
   129  1.2800000000000E+00 -4.3921807961105E-02 -3.9715217156527E-02
   130  1.2900000000000E+00 -3.3601770119211E-02 -5.6929084815953E-02
   131  1.3000000000000E+00 -2.3719221525595E-02 -7.3652906552438E-02
   132  1.3100000000000E+00 -1.4306018677322E-02 -8.9788369529957E-02
   133  1.3200000000000E+00 -5.3920041820972E-03 -1.0523686808747E-01
   134  1.3300000000000E+00  2.9831699039183E-03 -1.1984078240628E-01
   135  1.3400000000000E+00  1.0774663875711E-02 -1.3340726916638E-01
   136  1.3500000000000E+00  1.8011500694724E-02 -1.4609949157772E-01
   137  1.3600000000000E+00  2.4650950242872E-02 -1.5771318344640E-01
   138  1.3700000000000E+00  3.0680068007303E-02 -1.6818213329869E-01
   139  1.3800000000000E+00  3.6086340761905E-02 -1.7743220476920E-01
   140  1.3900000000000E+00  4.0861463329008E-02 -1.8540032524860E-01
   141  1.4000000000000E+00  4.5001275434807E-02 -1.9203441137080E-01
   142  1.4100000000000E+00  4.8505913639400E-02 -1.9729441951920E-01
   143  1.4200000000000E+00  5.1379917729474E-02 -2.0115322552833E-01
   144  1.4300000000000E+00  5.3632288809526E-02 -2.0359732077990E-01
   145  1.4400000000000E+00  5.5276496976541E-02 -2.0462731439211E-01
   146  1.4500000000000E+00  5.6330437148147E-02 -2.0425823386076E-01
   147  1.4600000000000E+00  5.6816332321155E-02 -2.0251961927305E-01
   148  1.4700000000000E+00  5.6760584261399E-02 -1.9945540906014E-01
   149  1.4800000000000E+00  5.6193572354425E-02 -1.9512361813526E-01
   150  1.4900000000000E+00  5.5149402069832E-02 -1.8959581213683E-01
   151  1.5000000000000E+00  5.3665605200021E-02 -1.8295638432406E-01
   152  1.5100000000000E+00  5.1782794719996E-02 -1.7530164442565E-01
   153  1.5200000000000E+00  4.9544277762707E-02 -1.6673873135820E-01
   154  1.5300000000000E+00  4.6995630811714E-02 -1.5738436419724E-01
   155  1.5400000000000E+00  4.4184241767610E-02 -1.4736344805348E-01
   156  1.5500000000000E+00  4.1158824039753E-02 -1.3680755354882E-01
   157  1.5600000000000E+00  3.7968908243555E-02 -1.2585329037560E-01
   158  1.5700000000000E+00  3.4664317439488E-02 -1.1464059692972E-01
   159  1.5800000000000E+00  3.1294632128286E-02 -1.0331096921442E-01
   160  1.5900000000000E+00  2.7908651412842E-02 -9.2005653097330E-02
   161  1.6000000000000E+00  2.4553856849269E-02 -8.0863824560119E-02
   162  1.6100000000000E+00  2.1275886270271E-02 -7.0020787123102E-02
   163  1.6200000000000E+00  1.8118016214123E-02 -5.9606165236813E-02
   164  1.6300000000000E+00  1.5120692940234E-02 -4.9742312720645E-02
   165  1.6400000000000E+00  1.2321026221987E-02 -4.0542437632921E-02
   166  1.6500000000000E+00  9.7512878935321E-03 -3.2102711236624E-02
   167  1.6600000000000E+00  7.4397725896082E-03 -2.4508109644959E-02
   168  1.6700000000000E+00  5.4124430567079E-03 -1.7843046384136E-02
   169  1.6800000000000E+00  3.6901509500299E-03 -1.2175850103223E-02
   170  1.6900000000000E+00  2.2885647822904E-03 -7.5588014500943E-03
   171  1.7000000000000E+00  1.2183091520423E-03 -4.0284686940022E-03
   172  1.7100000000000E+00  4.8134693196225E-04 -1.5936336863727E-03
   173  1.7200000000000E+00  8.8868799608281E-05 -2.9466134498160E-04
   174  1.7300000000000E+00 -7.8397193693468E-06  2.6018254346592E-05
   175  1.7400000000000E+00  1.9831465943005E-06 -6.5782588844621E-06
   176  1.75 -0.  0.
   177  1.76 -0.  0.
   178  1.77  0.  0.
   179  1.78  0.  0.
   180  1.79  0.  0.
   181  1.80  0.  0.
   182  1.81  0.  0.
   183  1.82  0.  0.
   184  1.83  0.  0.
   185  1.84  0.  0.
   186  1.85  0.  0.
   187  1.86  0.  0.
   188  1.87  0.  0.
   189  1.88  0.  0.
   190  1.89  0.  0.
   191  1.90  0.  0.
   192  1.91  0.  0.
   193  1.92  0.  0.
   194  1.93  0.  0.
   195  1.94  0.  0.
   196  1.95  0.  0.
   197  1.96  0.  0.
   198  1.97  0.  0.
   199  1.98  0.  0.
   200  1.99  0.  0.
   201  2.00  0.  0.
   202  2.01  0.  0.
   203  2.02  0.  0.
   204  2.03  0.  0.
   205  2.04  0.  0.
   206  2.05  0.  0.
   207  2.06  0.  0.
   208  2.07  0.  0.
   209  2.08  0.  0.
   210  2.09  0.  0.
   211  2.10  0.  0.
   212  2.11  0.  0.
   213  2.12  0.  0.
   214  2.13  0.  0.
   215  2.14  0.  0.
   216  2.15  0.  0.
   217  2.16  0.  0.
   218  2.17  0.  0.
   219  2.18  0.  0.
   220  2.19  0.  0.
   221  2.20  0.  0.
   222  2.21  0.  0.
   223  2.22  0.  0.
   224  2.23  0.  0.
   225  2.24  0.  0.
   226  2.25  0.  0.
   227  2.26  0.  0.
   228  2.27  0.  0.
   229  2.28  0.  0.
   230  2.29  0.  0.
   231  2.30  0.  0.
   232  2.31  0.  0.
   233  2.32  0.  0.
   234  2.33  0.  0.
   235  2.34  0.  0.
   236  2.35  0.  0.
   237  2.36  0.  0.
   238  2.37  0.  0.
   239  2.38  0.  0.
   240  2.39  0.  0.
   241  2.40  0.  0.
   242  2.41  0.  0.
   243  2.42  0.  0.
   244  2.43  0.  0.
   245  2.44  0.  0.
   246  2.45  0.  0.
   247  2.46  0.  0.
   248  2.47  0.  0.
   249  2.48  0.  0.
   250  2.49  0.  0.
   251  2.50  0.  0.
   252  2.51  0.  0.
   253  2.52  0.  0.
   254  2.53  0.  0.
   255  2.54  0.  0.
   256  2.55  0.  0.
   257  2.56  0.  0.
   258  2.57  0.  0.
   259  2.58  0.  0.
   260  2.59  0.  0.
   261  2.60  0.  0.
   262  2.61  0.  0.
   263  2.62  0.  0.
   264  2.63  0.  0.
   265  2.64  0.  0.
   266  2.65  0.  0.
   267  2.66  0.  0.
   268  2.67  0.  0.
   269  2.68  0.  0.
   270  2.69  0.  0.
   271  2.70  0.  0.
   272  2.71  0.  0.
   273  2.72  0.  0.
   274  2.73  0.  0.
   275  2.74  0.  0.
   276  2.75  0.  0.
   277  2.76  0.  0.
   278  2.77  0.  0.
   279  2.78  0.  0.
   280  2.79  0.  0.
   281  2.80  0.  0.
   282  2.81  0.  0.
   283  2.82  0.  0.
   284  2.83  0.  0.
   285  2.84  0.  0.
   286  2.85  0.  0.
   287  2.86  0.  0.
   288  2.87  0.  0.
   289  2.88  0.  0.
   290  2.89  0.  0.
   291  2.90  0.  0.
   292  2.91  0.  0.
   293  2.92  0.  0.
   294  2.93  0.  0.
   295  2.94  0.  0.
   296  2.95  0.  0.
   297  2.96  0.  0.
   298  2.97  0.  0.
   299  2.98  0.  0.
   300  2.99  0.  0.
   301  3.00  0.  0.
   302  3.01  0.  0.
   303  3.02  0.  0.
   304  3.03  0.  0.
   305  3.04  0.  0.
   306  3.05  0.  0.
   307  3.06  0.  0.
   308  3.07  0.  0.
   309  3.08  0.  0.
   310  3.09  0.  0.
   311  3.10  0.  0.
   312  3.11  0.  0.
   313  3.12  0.  0.
   314  3.13  0.  0.
   315  3.14  0.  0.
   316  3.15  0.  0.
   317  3.16  0.  0.
   318  3.17  0.  0.
   319  3.18  0.  0.
   320  3.19  0.  0.
   321  3.20  0.  0.
   322  3.21  0.  0.
   323  3.22  0.  0.
   324  3.23  0.  0.
   325  3.24  0.  0.
   326  3.25  0.  0.
   327  3.26  0.  0.
   328  3.27  0.  0.
   329  3.28  0.  0.
   330  3.29  0.  0.
   331  3.30  0.  0.
   332  3.31  0.  0.
   333  3.32  0.  0.
   334  3.33  0.  0.
   335  3.34  0.  0.
   336  3.35  0.  0.
   337  3.36  0.  0.
   338  3.37  0.  0.
   339  3.38  0.  0.
   340  3.39  0.  0.
   341  3.40  0.  0.
   342  3.41  0.  0.
   343  3.42  0.  0.
   344  3.43  0.  0.
   345  3.44  0.  0.
   346  3.45  0.  0.
   347  3.46  0.  0.
   348  3.47  0.  0.
   349  3.48  0.  0.
   350  3.49  0.  0.
   351  3.50  0.  0.
   352  3.51  0.  0.
   353  3.52  0.  0.
   354  3.53  0.  0.
   355  3.54  0.  0.
   356  3.55  0.  0.
   357  3.56  0.  0.
   358  3.57  0.  0.
   359  3.58  0.  0.
   360  3.59  0.  0.
   361  3.60  0.  0.
   362  3.61  0.  0.
   363  3.62  0.  0.
   364  3.63  0.  0.
   365  3.64  0.  0.
   366  3.65  0.  0.
   367  3.66  0.  0.
   368  3.67  0.  0.
   369  3.68  0.  0.
   370  3.69  0.  0.
   371  3.70  0.  0.
   372  3.71  0.  0.
   373  3.72  0.  0.
   374  3.73  0.  0.
   375  3.74  0.  0.
   376  3.75  0.  0.
   377  3.76  0.  0.
   378  3.77  0.  0.
   379  3.78  0.  0.
   380  3.79  0.  0.
   381  3.80  0.  0.
   382  3.81  0.  0.
   383  3.82  0.  0.
   384  3.83  0.  0.
   385  3.84  0.  0.
   386  3.85  0.  0.
   387  3.86  0.  0.
   388  3.87  0.  0.
   389  3.88  0.  0.
   390  3.89  0.  0.
   391  3.90  0.  0.
   392  3.91  0.  0.
   393  3.92  0.  0.
   394  3.93  0.  0.
   395  3.94  0.  0.
   396  3.95  0.  0.
   397  3.96  0.  0.
   398  3.97  0.  0.
   399  3.98  0.  0.
   400  3.99  0.  0.
   401  4.00  0.  0.
   402  4.01  0.  0.
   403  4.02  0.  0.
   404  4.03  0.  0.
   405  4.04  0.  0.
   406  4.05  0.  0.
   407  4.06  0.  0.
   408  4.07  0.  0.
   409  4.08  0.  0.
   410  4.09  0.  0.
   411  4.10  0.  0.
   412  4.11  0.  0.
   413  4.12  0.  0.
   414  4.13  0.  0.
   415  4.14  0.  0.
   416  4.15  0.  0.
   417  4.16  0.  0.
   418  4.17  0.  0.
   419  4.18  0.  0.
   420  4.19  0.  0.
   421  4.20  0.  0.
   422  4.21  0.  0.
   423  4.22  0.  0.
   424  4.23  0.  0.
   425  4.24  0.  0.
   426  4.25  0.  0.
   427  4.26  0.  0.
   428  4.27  0.  0.
   429  4.28  0.  0.
   430  4.29  0.  0.
   431  4.30  0.  0.
   432  4.31  0.  0.
   433  4.32  0.  0.
   434  4.33  0.  0.
   435  4.34  0.  0.
   436  4.35  0.  0.
   437  4.36  0.  0.
   438  4.37  0.  0.
   439  4.38  0.  0.
   440  4.39  0.  0.
   441  4.40  0.  0.
   442  4.41  0.  0.
   443  4.42  0.  0.
   444  4.43  0.  0.
   445  4.44  0.  0.
   446  4.45  0.  0.
   447  4.46  0.  0.
   448  4.47  0.  0.
   449  4.48  0.  0.
   450  4.49  0.  0.
   451  4.50  0.  0.
   452  4.51  0.  0.
   453  4.52  0.  0.
   454  4.53  0.  0.
   455  4.54  0.  0.
   456  4.55  0.  0.
   457  4.56  0.  0.
   458  4.57  0.  0.
   459  4.58  0.  0.
   460  4.59  0.  0.
   461  4.60  0.  0.
   462  4.61  0.  0.
   463  4.62  0.  0.
   464  4.63  0.  0.
   465  4.64  0.  0.
   466  4.65  0.  0.
   467  4.66  0.  0.
   468  4.67  0.  0.
   469  4.68  0.  0.
   470  4.69  0.  0.
   471  4.70  0.  0.
   472  4.71  0.  0.
   473  4.72  0.  0.
   474  4.73  0.  0.
   475  4.74  0.  0.
   476  4.75  0.  0.
   477  4.76  0.  0.
   478  4.77  0.  0.
   479  4.78  0.  0.
   480  4.79  0.  0.
   481  4.80  0.  0.
   482  4.81  0.  0.
   483  4.82  0.  0.
   484  4.83  0.  0.
   485  4.84  0.  0.
   486  4.85  0.  0.
   487  4.86  0.  0.
   488  4.87  0.  0.
   489  4.88  0.  0.
   490  4.89  0.  0.
   491  4.90  0.  0.
   492  4.91  0.  0.
   493  4.92  0.  0.
   494  4.93  0.  0.
   495  4.94  0.  0.
   496  4.95  0.  0.
   497  4.96  0.  0.
   498  4.97  0.  0.
   499  4.98  0.  0.
   500  4.99  0.  0.
   501  5.00  0.  0.
   502  5.01  0.  0.
   503  5.02  0.  0.
   504  5.03  0.  0.
   505  5.04  0.  0.
   506  5.05  0.  0.
   507  5.06  0.  0.
   508  5.07  0.  0.
   509  5.08  0.  0.
   510  5.09  0.  0.
   511  5.10  0.  0.
   512  5.11  0.  0.
   513  5.12  0.  0.
   514  5.13  0.  0.
   515  5.14  0.  0.
   516  5.15  0.  0.
   517  5.16  0.  0.
   518  5.17  0.  0.
   519  5.18  0.  0.
   520  5.19  0.  0.
   521  5.20  0.  0.
   522  5.21  0.  0.
   523  5.22  0.  0.
   524  5.23  0.  0.
   525  5.24  0.  0.
   526  5.25  0.  0.
   527  5.26  0.  0.
   528  5.27  0.  0.
   529  5.28  0.  0.
   530  5.29  0.  0.
   531  5.30  0.  0.
   532  5.31  0.  0.
   533  5.32  0.  0.
   534  5.33  0.  0.
   535  5.34  0.  0.
   536  5.35  0.  0.
   537  5.36  0.  0.
   538  5.37  0.  0.
   539  5.38  0.  0.
   540  5.39  0.  0.
   541  5.40  0.  0.
   542  5.41  0.  0.
   543  5.42  0.  0.
   544  5.43  0.  0.
   545  5.44  0.  0.
   546  5.45  0.  0.
   547  5.46  0.  0.
   548  5.47  0.  0.
   549  5.48  0.  0.
   550  5.49  0.  0.
   551  5.50  0.  0.
   552  5.51  0.  0.
   553  5.52  0.  0.
   554  5.53  0.  0.
   555  5.54  0.  0.
   556  5.55  0.  0.
   557  5.56  0.  0.
   558  5.57  0.  0.
   559  5.58  0.  0.
   560  5.59  0.  0.
   561  5.60  0.  0.
   562  5.61  0.  0.
   563  5.62  0.  0.
   564  5.63  0.  0.
   565  5.64  0.  0.
   566  5.65  0.  0.
   567  5.66  0.  0.
   568  5.67  0.  0.
   569  5.68  0.  0.
   570  5.69  0.  0.
   571  5.70  0.  0.
   572  5.71  0.  0.
   573  5.72  0.  0.
   574  5.73  0.  0.
   575  5.74  0.  0.
   576  5.75  0.  0.
   577  5.76  0.  0.
   578  5.77  0.  0.
   579  5.78  0.  0.
   580  5.79  0.  0.
   581  5.80  0.  0.
   582  5.81  0.  0.
   583  5.82  0.  0.
   584  5.83  0.  0.
   585  5.84  0.  0.
   586  5.85  0.  0.
   587  5.86  0.  0.
   588  5.87  0.  0.
   589  5.88  0.  0.
   590  5.89  0.  0.
   591  5.90  0.  0.
   592  5.91  0.  0.
   593  5.92  0.  0.
   594  5.93  0.  0.
   595  5.94  0.  0.
   596  5.95  0.  0.
   597  5.96  0.  0.
   598  5.97  0.  0.
   599  5.98  0.  0.
   600  5.99  0.  0.
   1                        -5.6888920360790E+00 -1.1174698979973E+00
     1  0.0000000000000E+00 -8.9598817254455E-10  9.4312006121422E-10
     2  1.0000000000000E-02 -2.0474270901276E-03  9.4716778170108E-04
     3  2.0000000000000E-02 -8.1765370660587E-03  3.7798846616890E-03
     4  3.0000000000000E-02 -1.8347894119386E-02  8.4718598468734E-03
     5  4.0000000000000E-02 -3.2496031681435E-02  1.4979503523465E-02
     6  5.0000000000000E-02 -5.0529840445145E-02  2.3242267374536E-02
     7  6.0000000000000E-02 -7.2333108313922E-02  3.3183117828211E-02
     8  7.0000000000000E-02 -9.7765209020172E-02  4.4709138589629E-02
     9  8.0000000000000E-02 -1.2666193526022E-01  5.7712258066711E-02
    10  9.0000000000000E-02 -1.5883647132224E-01  7.2070096387764E-02
    11  1.0000000000000E-01 -1.9408049934469E-01  8.7646925834464E-02
    12  1.1000000000000E-01 -2.3216543254009E-01  1.0429473768255E-01
    13  1.2000000000000E-01 -2.7284376795769E-01  1.2185440766136E-01
    14  1.3000000000000E-01 -3.1585055064285E-01  1.4015695151666E-01
    15  1.4000000000000E-01 -3.6090494038635E-01  1.5902486149528E-01
    16  1.5000000000000E-01 -4.0771187164607E-01  1.7827351396872E-01
    17  1.6000000000000E-01 -4.5596379667129E-01  1.9771263788101E-01
    18  1.7000000000000E-01 -5.0534250136928E-01  2.1714783324754E-01
    19  1.8000000000000E-01 -5.5552098302782E-01  2.3638212854885E-01
    20  1.9000000000000E-01 -6.0616537864834E-01  2.5521756556089E-01
    21  2.0000000000000E-01 -6.5693693235510E-01  2.7345679994106E-01
    22  2.1000000000000E-01 -7.0749399012729E-01  2.9090470575139E-01
    23  2.2000000000000E-01 -7.5749400995484E-01  3.0736997204583E-01
    24  2.3000000000000E-01 -8.0659557544581E-01  3.2266667967913E-01
    25  2.4000000000000E-01 -8.5446040091390E-01  3.3661584661030E-01
    26  2.5000000000000E-01 -9.0075531604827E-01  3.4904693017260E-01
    27  2.6000000000000E-01 -9.4515421841501E-01  3.5979927506399E-01
    28  2.7000000000000E-01 -9.8733998225747E-01  3.6872349617493E-01
    29  2.8000000000000E-01 -1.0270063123521E+00  3.7568278581123E-01
    30  2.9000000000000E-01 -1.0638595320327E+00  3.8055413538652E-01
    31  3.0000000000000E-01 -1.0976202949202E+00  3.8322946224723E-01
    32  3.1000000000000E-01 -1.1280252103792E+00  3.8361663294910E-01
    33  3.2000000000000E-01 -1.1548283732718E+00  3.8164037502415E-01
    34  3.3000000000000E-01 -1.1778027891785E+00  3.7724307005448E-01
    35  3.4000000000000E-01 -1.1967416869140E+00  3.7038542170039E-01
    36  3.5000000000000E-01 -1.2114597108674E+00  3.6104699320798E-01
    37  3.6000000000000E-01 -1.2217939864454E+00  3.4922660984019E-01
    38  3.7000000000000E-01 -1.2276050526807E+00  3.3494262262873E-01
    39  3.8000000000000E-01 -1.2287776568922E+00  3.1823303082537E-01
    40  3.9000000000000E-01 -1.2252214071289E+00  2.9915546143309E-01
    41  4.0000000000000E-01 -1.2168712790036E+00  2.7778700521366E-01
    42  4.1000000000000E-01 -1.2036879744139E+00  2.5422390959084E-01
    43  4.2000000000000E-01 -1.1856581305471E+00  2.2858112989009E-01
    44  4.3000000000000E-01 -1.1627943784785E+00  2.0099174137061E-01
    45  4.4000000000000E-01 -1.1351352515797E+00  1.7160621550411E-01
    46  4.5000000000000E-01 -1.1027449448585E+00  1.4059156493289E-01
    47  4.6000000000000E-01 -1.0657129272478E+00  1.0813036248730E-01
    48  4.7000000000000E-01 -1.0241534097367E+00  7.4419640556062E-02
    49  4.8000000000000E-01 -9.7820467309577E-01  3.9669677973167E-02
    50  4.9000000000000E-01 -9.2802825977609E-01  4.1026824074822E-03
    51  5.0000000000000E-01 -8.7380803536100E-01 -3.2048622990594E-02
    52  5.1000000000000E-01 -8.1574912570943E-01 -6.8542499222331E-02
    53  5.2000000000000E-01 -7.5407673664985E-01 -1.0512976724629E-01
    54  5.3000000000000E-01 -6.8903486375790E-01 -1.4155544927373E-01
    55  5.4000000000000E-01 -6.2088490037484E-01 -1.7756046436882E-01
    56  5.5000000000000E-01 -5.4990415259558E-01 -2.1288336674253E-01
    57  5.6000000000000E-01 -4.7638427046944E-01 -2.4726211478294E-01
    58  5.7000000000000E-01 -4.0062960511202E-01 -2.8043585859926E-01
    59  5.8000000000000E-01 -3.2295550182036E-01 -3.1214673367548E-01
    60  5.9000000000000E-01 -2.4368653961257E-01 -3.4214164813256E-01
    61  6.0000000000000E-01 -1.6315472787748E-01 -3.7017405108528E-01
    62  6.1000000000000E-01 -8.1697671016843E-02 -3.9600566965294E-01
    63  6.2000000000000E-01  3.4328790781605E-04 -4.1940820233903E-01
    64  6.3000000000000E-01  8.2624933449182E-02 -4.4016495673429E-01
    65  6.4000000000000E-01  1.6480404290084E-01 -4.5807241981689E-01
    66  6.5000000000000E-01  2.4653923928085E-01 -4.7294174952117E-01
    67  6.6000000000000E-01  3.2749282131546E-01 -4.8460017671819E-01
    68  6.7000000000000E-01  4.0733255976969E-01 -4.9289230729529E-01
    69  6.8000000000000E-01  4.8573344973740E-01 -4.9768131463124E-01
    70  6.9000000000000E-01  5.6237940883056E-01 -4.9885001343641E-01
    71  7.0000000000000E-01  6.3696491159155E-01 -4.9630180665622E-01
    72  7.1000000000000E-01  7.0919655089179E-01 -4.8996149791678E-01
    73  7.2000000000000E-01  7.7879451757107E-01 -4.7977596281789E-01
    74  7.3000000000000E-01  8.4549399011031E-01 -4.6571467324370E-01
    75  7.4000000000000E-01  9.0904642671361E-01 -4.4777006975951E-01
    76  7.5000000000000E-01  9.6922075279776E-01 -4.2595777808765E-01
    77  7.6000000000000E-01  1.0258044375454E+00 -4.0031666659836E-01
    78  7.7000000000000E-01  1.0786044538668E+00 -3.7090874270789E-01
    79  7.8000000000000E-01  1.1274481168301E+00 -3.3781888703677E-01
    80  7.9000000000000E-01  1.1721837963558E+00 -3.0115442514058E-01
    81  8.0000000000000E-01  1.2126815007245E+00 -2.6104453757649E-01
    82  8.1000000000000E-01  1.2488333282086E+00 -2.1763951000402E-01
    83  8.2000000000000E-01  1.2805537849119E+00 -1.7110982593191E-01
    84  8.3000000000000E-01  1.3077799676688E+00 -1.2164510560756E-01
    85  8.4000000000000E-01  1.3304716116247E+00 -6.9452895396179E-02
    86  8.5000000000000E-01  1.3486110028773E+00 -1.4757312805950E-02
    87  8.6000000000000E-01  1.3622027573055E+00  4.2202446920056E-02
    88  8.7000000000000E-01  1.3712734674382E+00  1.0117373601195E-01
    89  8.8000000000000E-01  1.3758712199229E+00  1.6189220389041E-01
    90  8.9000000000000E-01  1.3760649868338E+00  2.2408366350518E-01
    91  9.0000000000000E-01  1.3719438947038E+00  2.8746606587257E-01
    92  9.1000000000000E-01  1.3636163757849E+00  3.5175157392210E-01
    93  9.2000000000000E-01  1.3512092066137E+00  4.1664872636455E-01
    94  9.3000000000000E-01  1.3348664394969E+00  4.8186468196607E-01
    95  9.4000000000000E-01  1.3147482330228E+00  5.4710753435921E-01
    96  9.5000000000000E-01  1.2910295881543E+00  6.1208868734054E-01
    97  9.6000000000000E-01  1.2638989968515E+00  6.7652528049798E-01
    98  9.7000000000000E-01  1.2335570105255E+00  7.4014265497769E-01
    99  9.8000000000000E-01  1.2002147359184E+00  8.0267684924028E-01
   100  9.9000000000000E-01  1.1640922662491E+00  8.6387711476736E-01
   101  1.0000000000000E+00  1.1254170556560E+00  9.2350844186036E-01
   102  1.0100000000000E+00  1.0844222454336E+00  9.8135408692825E-01
   103  1.0200000000000E+00  1.0413449477032E+00  1.0372180840963E+00
   104  1.0300000000000E+00  9.9642430694937E-01  1.0909272139272E+00
   105  1.0400000000000E+00  9.4989755180549E-01  1.1423267082622E+00
   106  1.0500000000000E+00  9.0199660324991E-01  1.1912743287928E+00
   107  1.0600000000000E+00  8.5294734622267E-01  1.2376399055759E+00
   108  1.0700000000000E+00  8.0296919761270E-01  1.2813054504529E+00
   109  1.0800000000000E+00  7.5227471241301E-01  1.3221652308823E+00
   110  1.0900000000000E+00  7.0106922433516E-01  1.3601257978719E+00
   111  1.1000000000000E+00  6.4955052111265E-01  1.3951059704030E+00
   112  1.1100000000000E+00  5.9790855411838E-01  1.4270367776852E+00
   113  1.1200000000000E+00  5.4632518185630E-01  1.4558613606912E+00
   114  1.1300000000000E+00  4.9497394682352E-01  1.4815348345261E+00
   115  1.1400000000000E+00  4.4401988517674E-01  1.5040241132820E+00
   116  1.1500000000000E+00  3.9361936857564E-01  1.5233076991206E+00
   117  1.1600000000000E+00  3.4391997751722E-01  1.5393754374034E+00
   118  1.1700000000000E+00  2.9506040541768E-01  1.5522282397634E+00
   119  1.1800000000000E+00  2.4717039264429E-01  1.5618777770734E+00