Cu    ONCVPSP-4.0.1  r_core=   1.68769   1.90218   1.90218
     29.0000     19.0000      230118    zatom,zion,pspd
     8       2   2     4   600     0    pspcod,pspxc,lmax,lloc,mmax,r2well
  5.99000000  3.50000000  0.00000000    rchrg fchrg qchrg
     2     2     2     0     0    nproj
     1     1           extension_switch
   0                        -3.0339465834812E+00  2.7597131868520E+00
     1  0.0000000000000E+00 -4.4372838736706E-12  1.5182299861749E-11
     2  1.0000000000000E-02  4.2146895125018E-02  8.8874797312152E-02
     3  2.0000000000000E-02  8.4254002670020E-02  1.7740277043014E-01
     4  3.0000000000000E-02  1.2628156294373E-01  2.6523847323866E-01
     5  4.0000000000000E-02  1.6818987206293E-01  3.5203921115466E-01
     6  5.0000000000000E-02  2.0993930993410E-01  4.3746640532483E-01
     7  6.0000000000000E-02  2.5149036833156E-01  5.2118694292764E-01
     8  7.0000000000000E-02  2.9280367910971E-01  6.0287450892704E-01
     9  8.0000000000000E-02  3.3384004259128E-01  6.8221089461031E-01
    10  9.0000000000000E-02  3.7456045617917E-01  7.5888727822614E-01
    11  1.0000000000000E-01  4.1492614324491E-01  8.3260547302536E-01
    12  1.1000000000000E-01  4.5489858235376E-01  9.0307913799566E-01
    13  1.2000000000000E-01  4.9443953689273E-01  9.7003494657822E-01
    14  1.3000000000000E-01  5.3351108517492E-01  1.0332137086589E+00
    15  1.4000000000000E-01  5.7207565110001E-01  1.0923714411451E+00
    16  1.5000000000000E-01  6.1009603545664E-01  1.1472803824720E+00
    17  1.6000000000000E-01  6.4753544795809E-01  1.1977299464339E+00
    18  1.7000000000000E-01  6.8435754010659E-01  1.2435276108108E+00
    19  1.8000000000000E-01  7.2052643898507E-01  1.2844997363582E+00
    20  1.9000000000000E-01  7.5600678207642E-01  1.3204923118542E+00
    21  2.0000000000000E-01  7.9076375321019E-01  1.3513716210561E+00
    22  2.1000000000000E-01  8.2476311973475E-01  1.3770248276070E+00
    23  2.2000000000000E-01  8.5797127100838E-01  1.3973604741577E+00
    24  2.3000000000000E-01  8.9035525829637E-01  1.4123088922294E+00
    25  2.4000000000000E-01  9.2188283615240E-01  1.4218225196423E+00
    26  2.5000000000000E-01  9.5252250535071E-01  1.4258761226699E+00
    27  2.6000000000000E-01  9.8224355742203E-01  1.4244669204549E+00
    28  2.7000000000000E-01  1.0110161208295E+00  1.4176146096336E+00
    29  2.8000000000000E-01  1.0388112088020E+00  1.4053612875670E+00
    30  2.9000000000000E-01  1.0656007688211E+00  1.3877712730596E+00
    31  3.0000000000000E-01  1.0913577337339E+00  1.3649308239644E+00
    32  3.1000000000000E-01  1.1160560744394E+00  1.3369477516207E+00
    33  3.2000000000000E-01  1.1396708540670E+00  1.3039509326444E+00
    34  3.3000000000000E-01  1.1621782835386E+00  1.2660897191873E+00
    35  3.4000000000000E-01  1.1835557783739E+00  1.2235332493972E+00
    36  3.5000000000000E-01  1.2037820165689E+00  1.1764696604364E+00
    37  3.6000000000000E-01  1.2228369973437E+00  1.1251052070559E+00
    38  3.7000000000000E-01  1.2407021005269E+00  1.0696632893549E+00
    39  3.8000000000000E-01  1.2573601463091E+00  1.0103833939942E+00
    40  3.9000000000000E-01  1.2727954550696E+00  9.4751995375187E-01
    41  4.0000000000000E-01  1.2869939069496E+00  8.8134113091839E-01
    42  4.1000000000000E-01  1.2999430008163E+00  8.1212753061116E-01
    43  4.2000000000000E-01  1.3116319122395E+00  7.4017085064355E-01
    44  4.3000000000000E-01  1.3220515500741E+00  6.6577247510023E-01
    45  4.4000000000000E-01  1.3311946112249E+00  5.8924201924871E-01
    46  4.5000000000000E-01  1.3390556331522E+00  5.1089583384354E-01
    47  4.6000000000000E-01  1.3456310436608E+00  4.3105547725546E-01
    48  4.7000000000000E-01  1.3509192075100E+00  3.5004616417390E-01
    49  4.8000000000000E-01  1.3549204693709E+00  2.6819519988395E-01
    50  4.9000000000000E-01  1.3576371926626E+00  1.8583040930621E-01
    51  5.0000000000000E-01  1.3590737937998E+00  1.0327857010234E-01
    52  5.1000000000000E-01  1.3592367713929E+00  2.0863859193663E-02
    53  5.2000000000000E-01  1.3581347299585E+00 -6.1093677993128E-02
    54  5.3000000000000E-01  1.3557783977149E+00 -1.4227962634580E-01
    55  5.4000000000000E-01  1.3521806380625E+00 -2.2238665892908E-01
    56  5.5000000000000E-01  1.3473564543778E+00 -3.0111594512613E-01
    57  5.6000000000000E-01  1.3413229877836E+00 -3.7817850062844E-01
    58  5.7000000000000E-01  1.3340995075971E+00 -4.5329647124956E-01
    59  5.8000000000000E-01  1.3257073941982E+00 -5.2620434301128E-01
    60  5.9000000000000E-01  1.3161701141103E+00 -5.9665007149022E-01
    61  6.0000000000000E-01  1.3055131871321E+00 -6.6439612401155E-01
    62  6.1000000000000E-01  1.2937641454151E+00 -7.2922042893020E-01
    63  6.2000000000000E-01  1.2809524844367E+00 -7.9091722694295E-01
    64  6.3000000000000E-01  1.2671096058747E+00 -8.4929782011891E-01
    65  6.4000000000000E-01  1.2522687524512E+00 -9.0419121511638E-01
    66  6.5000000000000E-01  1.2364649348726E+00 -9.5544465786099E-01
    67  6.6000000000000E-01  1.2197348510516E+00 -1.0029240577873E+00
    68  6.7000000000000E-01  1.2021167978611E+00 -1.0465143005844E+00
    69  6.8000000000000E-01  1.1836505757243E+00 -1.0861194492284E+00
    70  6.9000000000000E-01  1.1643773864073E+00 -1.1216628339203E+00
    71  7.0000000000000E-01  1.1443397244319E+00 -1.1530870323724E+00
    72  7.1000000000000E-01  1.1235812625813E+00 -1.1803537426869E+00
    73  7.2000000000000E-01  1.1021467320201E+00 -1.2034435518444E+00
    74  7.3000000000000E-01  1.0800817975940E+00 -1.2223556035536E+00
    75  7.4000000000000E-01  1.0574329289157E+00 -1.2371071699069E+00
    76  7.5000000000000E-01  1.0342472678798E+00 -1.2477331319267E+00
    77  7.6000000000000E-01  1.0105724932790E+00 -1.2542853746715E+00
    78  7.7000000000000E-01  9.8645668321870E-01 -1.2568321030947E+00
    79  7.8000000000000E-01  9.6194817604651E-01 -1.2554570853042E+00
    80  7.9000000000000E-01  9.3709543052466E-01 -1.2502588302583E+00
    81  8.0000000000000E-01  9.1194688598056E-01 -1.2413497072467E+00
    82  8.1000000000000E-01  8.8655082316996E-01 -1.2288550147436E+00
    83  8.2000000000000E-01  8.6095522658110E-01 -1.2129120063831E+00
    84  8.3000000000000E-01  8.3520764889532E-01 -1.1936688818925E+00
    85  8.4000000000000E-01  8.0935507830056E-01 -1.1712837508304E+00
    86  8.5000000000000E-01  7.8344380932979E-01 -1.1459235769139E+00
    87  8.6000000000000E-01  7.5751931786531E-01 -1.1177631105809E+00
    88  8.7000000000000E-01  7.3162614091488E-01 -1.0869838172355E+00
    89  8.8000000000000E-01  7.0580776172429E-01 -1.0537728083503E+00
    90  8.9000000000000E-01  6.8010650074668E-01 -1.0183217822777E+00
    91  9.0000000000000E-01  6.5456341293948E-01 -9.8082598123619E-01
    92  9.1000000000000E-01  6.2921819180809E-01 -9.4148317051039E-01
    93  9.2000000000000E-01  6.0410908056011E-01 -9.0049264542816E-01
    94  9.3000000000000E-01  5.7927279067721E-01 -8.5805427117401E-01
    95  9.4000000000000E-01  5.5474442815301E-01 -8.1436755995965E-01
    96  9.5000000000000E-01  5.3055742758603E-01 -7.6963078951730E-01
    97  9.6000000000000E-01  5.0674349425730E-01 -7.2404016631084E-01
    98  9.7000000000000E-01  4.8333255426312E-01 -6.7778903628380E-01
    99  9.8000000000000E-01  4.6035271271550E-01 -6.3106714538829E-01
   100  9.9000000000000E-01  4.3783021996642E-01 -5.8405995157170E-01
   101  1.0000000000000E+00  4.1578944575837E-01 -5.3694798934653E-01
   102  1.0100000000000E+00  3.9425286115204E-01 -4.8990628753801E-01
   103  1.0200000000000E+00  3.7324102803444E-01 -4.4310384030098E-01
   104  1.0300000000000E+00  3.5277259596652E-01 -3.9670313102671E-01
   105  1.0400000000000E+00  3.3286430608921E-01 -3.5085970832743E-01
   106  1.0500000000000E+00  3.1353100177162E-01 -3.0572181289454E-01
   107  1.0600000000000E+00  2.9478564565382E-01 -2.6143005367945E-01
   108  1.0700000000000E+00  2.7663934271119E-01 -2.1811713154710E-01
   109  1.0800000000000E+00  2.5910136894614E-01 -1.7590760830202E-01
   110  1.0900000000000E+00  2.4217920529744E-01 -1.3491771878696E-01
   111  1.1000000000000E+00  2.2587857634662E-01 -9.5255223606243E-02
   112  1.1100000000000E+00  2.1020349339520E-01 -5.7019299925968E-02
   113  1.1200000000000E+00  1.9515630148584E-01 -2.0300467754599E-02
   114  1.1300000000000E+00  1.8073772994428E-01  1.4819450896303E-02
   115  1.1400000000000E+00  1.6694694602698E-01  4.8267342529727E-02
   116  1.1500000000000E+00  1.5378161127210E-01  7.9978784835776E-02
   117  1.1600000000000E+00  1.4123794016683E-01  1.0989800387689E-01
   118  1.1700000000000E+00  1.2931076076389E-01  1.3797780799138E-01
   119  1.1800000000000E+00  1.1799357690166E-01  1.6417950044195E-01
   120  1.1900000000000E+00  1.0727863170705E-01  1.8847277263396E-01
   121  1.2000000000000E+00  9.7156972086376E-02  2.1083557950879E-01
   122  1.2100000000000E+00  8.7618513936982E-02  2.3125399848739E-01
   123  1.2200000000000E+00  7.8652107840965E-02  2.4972207310199E-01
   124  1.2300000000000E+00  7.0245605030704E-02  2.6624164221770E-01
   125  1.2400000000000E+00  6.2385923444606E-02  2.8082215551325E-01
   126  1.2500000000000E+00  5.5059113719064E-02  2.9348047566910E-01
   127  1.2600000000000E+00  4.8250424989182E-02  3.0424066750574E-01
   128  1.2700000000000E+00  4.1944370395852E-02  3.1313377412848E-01
   129  1.2800000000000E+00  3.6124792219627E-02  3.2019757997465E-01
   130  1.2900000000000E+00  3.0774926582441E-02  3.2547636052499E-01
   131  1.3000000000000E+00  2.5877467676223E-02  3.2902061833924E-01
   132  1.3100000000000E+00  2.1414631492405E-02  3.3088680500732E-01
   133  1.3200000000000E+00  1.7368219038283E-02  3.3113702857415E-01
   134  1.3300000000000E+00  1.3719679034931E-02  3.2983874599982E-01
   135  1.3400000000000E+00  1.0450170096667E-02  3.2706444025777E-01
   136  1.3500000000000E+00  7.5406223942547E-03  3.2289128175022E-01
   137  1.3600000000000E+00  4.9717988027081E-03  3.1740077383459E-01
   138  1.3700000000000E+00  2.7243555302762E-03  3.1067838240125E-01
   139  1.3800000000000E+00  7.7890221772579E-04  3.0281314962390E-01
   140  1.3900000000000E+00 -8.8393851308005E-04  2.9389729221123E-01
   141  1.4000000000000E+00 -2.2834720950606E-03  2.8402578472408E-01
   142  1.4100000000000E+00 -3.4388736849401E-03  2.7329592877832E-01
   143  1.4200000000000E+00 -4.3691305309143E-03  2.6180690922682E-01
   144  1.4300000000000E+00 -5.0929851227668E-03  2.4965933870069E-01
   145  1.4400000000000E+00 -5.6288792276136E-03  2.3695479218194E-01
   146  1.4500000000000E+00 -5.9948989345582E-03  2.2379533357731E-01
   147  1.4600000000000E+00 -6.2087208517962E-03  2.1028303655404E-01
   148  1.4700000000000E+00 -6.2875596197560E-03  1.9651950218273E-01
   149  1.4800000000000E+00 -6.2481169232609E-03  1.8260537620207E-01
   150  1.4900000000000E+00 -6.1065322040007E-03  1.6863986897080E-01
   151  1.5000000000000E+00 -5.8783352913843E-03  1.5472028139868E-01
   152  1.5100000000000E+00 -5.5784011846873E-03  1.4094154034509E-01
   153  1.5200000000000E+00 -5.2209072320702E-03  1.2739574713902E-01
   154  1.5300000000000E+00 -4.8192929620641E-03  1.1417174300062E-01
   155  1.5400000000000E+00 -4.3862228302115E-03  1.0135469523171E-01
   156  1.5500000000000E+00 -3.9335521476706E-03  8.9025708086482E-02
   157  1.5600000000000E+00 -3.4722964592798E-03  7.7261462232685E-02
   158  1.5700000000000E+00 -3.0126046359514E-03  6.6133886665935E-02
   159  1.5800000000000E+00 -2.5637359584147E-03  5.5709867603703E-02
   160  1.5900000000000E+00 -2.1340412935856E-03  4.6050990300899E-02
   161  1.6000000000000E+00 -1.7309496114843E-03  3.7213376873297E-02
   162  1.6100000000000E+00 -1.3608237595724E-03  2.9241878670255E-02
   163  1.6200000000000E+00 -1.0289525870008E-03  2.2168184562181E-02
   164  1.6300000000000E+00 -7.4017100169274E-04  1.6038817950480E-02
   165  1.6400000000000E+00 -4.9799148884350E-04  1.0889153580923E-02
   166  1.6500000000000E+00 -3.0437485950584E-04  6.7395015730990E-03
   167  1.6600000000000E+00 -1.5976011216036E-04  3.5957315095800E-03
   168  1.6700000000000E+00 -6.2796249636830E-05  1.4424520233931E-03
   169  1.6800000000000E+00 -1.1869091410981E-05  2.7979090317744E-04
   170  1.6900000000000E+00  8.0015907343128E-07 -1.9234436850316E-05
   171  1.7000000000000E+00 -2.0778950200820E-07  4.9471297478097E-06
   172  1.71  0. -0.
   173  1.72  0. -0.
   174  1.73  0.  0.
   175  1.74  0.  0.
   176  1.75  0.  0.
   177  1.76  0.  0.
   178  1.77  0.  0.
   179  1.78  0.  0.
   180  1.79  0.  0.
   181  1.80  0.  0.
   182  1.81  0.  0.
   183  1.82  0.  0.
   184  1.83  0.  0.
   185  1.84  0.  0.
   186  1.85  0.  0.
   187  1.86  0.  0.
   188  1.87  0.  0.
   189  1.88  0.  0.
   190  1.89  0.  0.
   191  1.90  0.  0.
   192  1.91  0.  0.
   193  1.92  0.  0.
   194  1.93  0.  0.
   195  1.94  0.  0.
   196  1.95  0.  0.
   197  1.96  0.  0.
   198  1.97  0.  0.
   199  1.98  0.  0.
   200  1.99  0.  0.
   201  2.00  0.  0.
   202  2.01  0.  0.
   203  2.02  0.  0.
   204  2.03  0.  0.
   205  2.04  0.  0.
   206  2.05  0.  0.
   207  2.06  0.  0.
   208  2.07  0.  0.
   209  2.08  0.  0.
   210  2.09  0.  0.
   211  2.10  0.  0.
   212  2.11  0.  0.
   213  2.12  0.  0.
   214  2.13  0.  0.
   215  2.14  0.  0.
   216  2.15  0.  0.
   217  2.16  0.  0.
   218  2.17  0.  0.
   219  2.18  0.  0.
   220  2.19  0.  0.
   221  2.20  0.  0.
   222  2.21  0.  0.
   223  2.22  0.  0.
   224  2.23  0.  0.
   225  2.24  0.  0.
   226  2.25  0.  0.
   227  2.26  0.  0.
   228  2.27  0.  0.
   229  2.28  0.  0.
   230  2.29  0.  0.
   231  2.30  0.  0.
   232  2.31  0.  0.
   233  2.32  0.  0.
   234  2.33  0.  0.
   235  2.34  0.  0.
   236  2.35  0.  0.
   237  2.36  0.  0.
   238  2.37  0.  0.
   239  2.38  0.  0.
   240  2.39  0.  0.
   241  2.40  0.  0.
   242  2.41  0.  0.
   243  2.42  0.  0.
   244  2.43  0.  0.
   245  2.44  0.  0.
   246  2.45  0.  0.
   247  2.46  0.  0.
   248  2.47  0.  0.
   249  2.48  0.  0.
   250  2.49  0.  0.
   251  2.50  0.  0.
   252  2.51  0.  0.
   253  2.52  0.  0.
   254  2.53  0.  0.
   255  2.54  0.  0.
   256  2.55  0.  0.
   257  2.56  0.  0.
   258  2.57  0.  0.
   259  2.58  0.  0.
   260  2.59  0.  0.
   261  2.60  0.  0.
   262  2.61  0.  0.
   263  2.62  0.  0.
   264  2.63  0.  0.
   265  2.64  0.  0.
   266  2.65  0.  0.
   267  2.66  0.  0.
   268  2.67  0.  0.
   269  2.68  0.  0.
   270  2.69  0.  0.
   271  2.70  0.  0.
   272  2.71  0.  0.
   273  2.72  0.  0.
   274  2.73  0.  0.
   275  2.74  0.  0.
   276  2.75  0.  0.
   277  2.76  0.  0.
   278  2.77  0.  0.
   279  2.78  0.  0.
   280  2.79  0.  0.
   281  2.80  0.  0.
   282  2.81  0.  0.
   283  2.82  0.  0.
   284  2.83  0.  0.
   285  2.84  0.  0.
   286  2.85  0.  0.
   287  2.86  0.  0.
   288  2.87  0.  0.
   289  2.88  0.  0.
   290  2.89  0.  0.
   291  2.90  0.  0.
   292  2.91  0.  0.
   293  2.92  0.  0.
   294  2.93  0.  0.
   295  2.94  0.  0.
   296  2.95  0.  0.
   297  2.96  0.  0.
   298  2.97  0.  0.
   299  2.98  0.  0.
   300  2.99  0.  0.
   301  3.00  0.  0.
   302  3.01  0.  0.
   303  3.02  0.  0.
   304  3.03  0.  0.
   305  3.04  0.  0.
   306  3.05  0.  0.
   307  3.06  0.  0.
   308  3.07  0.  0.
   309  3.08  0.  0.
   310  3.09  0.  0.
   311  3.10  0.  0.
   312  3.11  0.  0.
   313  3.12  0.  0.
   314  3.13  0.  0.
   315  3.14  0.  0.
   316  3.15  0.  0.
   317  3.16  0.  0.
   318  3.17  0.  0.
   319  3.18  0.  0.
   320  3.19  0.  0.
   321  3.20  0.  0.
   322  3.21  0.  0.
   323  3.22  0.  0.
   324  3.23  0.  0.
   325  3.24  0.  0.
   326  3.25  0.  0.
   327  3.26  0.  0.
   328  3.27  0.  0.
   329  3.28  0.  0.
   330  3.29  0.  0.
   331  3.30  0.  0.
   332  3.31  0.  0.
   333  3.32  0.  0.
   334  3.33  0.  0.
   335  3.34  0.  0.
   336  3.35  0.  0.
   337  3.36  0.  0.
   338  3.37  0.  0.
   339  3.38  0.  0.
   340  3.39  0.  0.
   341  3.40  0.  0.
   342  3.41  0.  0.
   343  3.42  0.  0.
   344  3.43  0.  0.
   345  3.44  0.  0.
   346  3.45  0.  0.
   347  3.46  0.  0.
   348  3.47  0.  0.
   349  3.48  0.  0.
   350  3.49  0.  0.
   351  3.50  0.  0.
   352  3.51  0.  0.
   353  3.52  0.  0.
   354  3.53  0.  0.
   355  3.54  0.  0.
   356  3.55  0.  0.
   357  3.56  0.  0.
   358  3.57  0.  0.
   359  3.58  0.  0.
   360  3.59  0.  0.
   361  3.60  0.  0.
   362  3.61  0.  0.
   363  3.62  0.  0.
   364  3.63  0.  0.
   365  3.64  0.  0.
   366  3.65  0.  0.
   367  3.66  0.  0.
   368  3.67  0.  0.
   369  3.68  0.  0.
   370  3.69  0.  0.
   371  3.70  0.  0.
   372  3.71  0.  0.
   373  3.72  0.  0.
   374  3.73  0.  0.
   375  3.74  0.  0.
   376  3.75  0.  0.
   377  3.76  0.  0.
   378  3.77  0.  0.
   379  3.78  0.  0.
   380  3.79  0.  0.
   381  3.80  0.  0.
   382  3.81  0.  0.
   383  3.82  0.  0.
   384  3.83  0.  0.
   385  3.84  0.  0.
   386  3.85  0.  0.
   387  3.86  0.  0.
   388  3.87  0.  0.
   389  3.88  0.  0.
   390  3.89  0.  0.
   391  3.90  0.  0.
   392  3.91  0.  0.
   393  3.92  0.  0.
   394  3.93  0.  0.
   395  3.94  0.  0.
   396  3.95  0.  0.
   397  3.96  0.  0.
   398  3.97  0.  0.
   399  3.98  0.  0.
   400  3.99  0.  0.
   401  4.00  0.  0.
   402  4.01  0.  0.
   403  4.02  0.  0.
   404  4.03  0.  0.
   405  4.04  0.  0.
   406  4.05  0.  0.
   407  4.06  0.  0.
   408  4.07  0.  0.
   409  4.08  0.  0.
   410  4.09  0.  0.
   411  4.10  0.  0.
   412  4.11  0.  0.
   413  4.12  0.  0.
   414  4.13  0.  0.
   415  4.14  0.  0.
   416  4.15  0.  0.
   417  4.16  0.  0.
   418  4.17  0.  0.
   419  4.18  0.  0.
   420  4.19  0.  0.
   421  4.20  0.  0.
   422  4.21  0.  0.
   423  4.22  0.  0.
   424  4.23  0.  0.
   425  4.24  0.  0.
   426  4.25  0.  0.
   427  4.26  0.  0.
   428  4.27  0.  0.
   429  4.28  0.  0.
   430  4.29  0.  0.
   431  4.30  0.  0.
   432  4.31  0.  0.
   433  4.32  0.  0.
   434  4.33  0.  0.
   435  4.34  0.  0.
   436  4.35  0.  0.
   437  4.36  0.  0.
   438  4.37  0.  0.
   439  4.38  0.  0.
   440  4.39  0.  0.
   441  4.40  0.  0.
   442  4.41  0.  0.
   443  4.42  0.  0.
   444  4.43  0.  0.
   445  4.44  0.  0.
   446  4.45  0.  0.
   447  4.46  0.  0.
   448  4.47  0.  0.
   449  4.48  0.  0.
   450  4.49  0.  0.
   451  4.50  0.  0.
   452  4.51  0.  0.
   453  4.52  0.  0.
   454  4.53  0.  0.
   455  4.54  0.  0.
   456  4.55  0.  0.
   457  4.56  0.  0.
   458  4.57  0.  0.
   459  4.58  0.  0.
   460  4.59  0.  0.
   461  4.60  0.  0.
   462  4.61  0.  0.
   463  4.62  0.  0.
   464  4.63  0.  0.
   465  4.64  0.  0.
   466  4.65  0.  0.
   467  4.66  0.  0.
   468  4.67  0.  0.
   469  4.68  0.  0.
   470  4.69  0.  0.
   471  4.70  0.  0.
   472  4.71  0.  0.
   473  4.72  0.  0.
   474  4.73  0.  0.
   475  4.74  0.  0.
   476  4.75  0.  0.
   477  4.76  0.  0.
   478  4.77  0.  0.
   479  4.78  0.  0.
   480  4.79  0.  0.
   481  4.80  0.  0.
   482  4.81  0.  0.
   483  4.82  0.  0.
   484  4.83  0.  0.
   485  4.84  0.  0.
   486  4.85  0.  0.
   487  4.86  0.  0.
   488  4.87  0.  0.
   489  4.88  0.  0.
   490  4.89  0.  0.
   491  4.90  0.  0.
   492  4.91  0.  0.
   493  4.92  0.  0.
   494  4.93  0.  0.
   495  4.94  0.  0.
   496  4.95  0.  0.
   497  4.96  0.  0.
   498  4.97  0.  0.
   499  4.98  0.  0.
   500  4.99  0.  0.
   501  5.00  0.  0.
   502  5.01  0.  0.
   503  5.02  0.  0.
   504  5.03  0.  0.
   505  5.04  0.  0.
   506  5.05  0.  0.
   507  5.06  0.  0.
   508  5.07  0.  0.
   509  5.08  0.  0.
   510  5.09  0.  0.
   511  5.10  0.  0.
   512  5.11  0.  0.
   513  5.12  0.  0.
   514  5.13  0.  0.
   515  5.14  0.  0.
   516  5.15  0.  0.
   517  5.16  0.  0.
   518  5.17  0.  0.
   519  5.18  0.  0.
   520  5.19  0.  0.
   521  5.20  0.  0.
   522  5.21  0.  0.
   523  5.22  0.  0.
   524  5.23  0.  0.
   525  5.24  0.  0.
   526  5.25  0.  0.
   527  5.26  0.  0.
   528  5.27  0.  0.
   529  5.28  0.  0.
   530  5.29  0.  0.
   531  5.30  0.  0.
   532  5.31  0.  0.
   533  5.32  0.  0.
   534  5.33  0.  0.
   535  5.34  0.  0.
   536  5.35  0.  0.
   537  5.36  0.  0.
   538  5.37  0.  0.
   539  5.38  0.  0.
   540  5.39  0.  0.
   541  5.40  0.  0.
   542  5.41  0.  0.
   543  5.42  0.  0.
   544  5.43  0.  0.
   545  5.44  0.  0.
   546  5.45  0.  0.
   547  5.46  0.  0.
   548  5.47  0.  0.
   549  5.48  0.  0.
   550  5.49  0.  0.
   551  5.50  0.  0.
   552  5.51  0.  0.
   553  5.52  0.  0.
   554  5.53  0.  0.
   555  5.54  0.  0.
   556  5.55  0.  0.
   557  5.56  0.  0.
   558  5.57  0.  0.
   559  5.58  0.  0.
   560  5.59  0.  0.
   561  5.60  0.  0.
   562  5.61  0.  0.
   563  5.62  0.  0.
   564  5.63  0.  0.
   565  5.64  0.  0.
   566  5.65  0.  0.
   567  5.66  0.  0.
   568  5.67  0.  0.
   569  5.68  0.  0.
   570  5.69  0.  0.
   571  5.70  0.  0.
   572  5.71  0.  0.
   573  5.72  0.  0.
   574  5.73  0.  0.
   575  5.74  0.  0.
   576  5.75  0.  0.
   577  5.76  0.  0.
   578  5.77  0.  0.
   579  5.78  0.  0.
   580  5.79  0.  0.
   581  5.80  0.  0.
   582  5.81  0.  0.
   583  5.82  0.  0.
   584  5.83  0.  0.
   585  5.84  0.  0.
   586  5.85  0.  0.
   587  5.86  0.  0.
   588  5.87  0.  0.
   589  5.88  0.  0.
   590  5.89  0.  0.
   591  5.90  0.  0.
   592  5.91  0.  0.
   593  5.92  0.  0.
   594  5.93  0.  0.
   595  5.94  0.  0.
   596  5.95  0.  0.
   597  5.96  0.  0.
   598  5.97  0.  0.
   599  5.98  0.  0.
   600  5.99  0.  0.
   1                        -5.3743685219095E+00 -1.6313221363903E+00
     1  0.0000000000000E+00  3.4866415310475E-11  5.3582818737574E-11
     2  1.0000000000000E-02  1.1873688850614E-03 -8.9417717336834E-04
     3  2.0000000000000E-02  4.7457735404049E-03 -3.5722439177503E-03
     4  3.0000000000000E-02  1.0664118815914E-02 -8.0208192076043E-03
     5  4.0000000000000E-02  1.8923948944062E-02 -1.4217645711097E-02
     6  5.0000000000000E-02  2.9499501709839E-02 -2.2131656489638E-02
     7  6.0000000000000E-02  4.2357784179597E-02 -3.1723068638819E-02
     8  7.0000000000000E-02  5.7458669877454E-02 -4.2943504119487E-02
     9  8.0000000000000E-02  7.4755017263060E-02 -5.5736138081273E-02
    10  9.0000000000000E-02  9.4192809327236E-02 -7.0035875020940E-02
    11  1.0000000000000E-01  1.1571131408218E-01 -8.5769553143177E-02
    12  1.1000000000000E-01  1.3924326568003E-01 -1.0285617729853E-01
    13  1.2000000000000E-01  1.6471506584737E-01 -1.2120718086146E-01
    14  1.3000000000000E-01  1.9204700527354E-01 -1.4072671687832E-01
    15  1.4000000000000E-01  2.2115350453730E-01 -1.6131197875982E-01
    16  1.5000000000000E-01  2.5194337409913E-01 -1.8285355071462E-01
    17  1.6000000000000E-01  2.8432009282591E-01 -2.0523578801887E-01
    18  1.7000000000000E-01  3.1818210445025E-01 -2.2833722709196E-01
    19  1.8000000000000E-01  3.5342313129894E-01 -2.5203102520055E-01
    20  1.9000000000000E-01  3.8993250455445E-01 -2.7618542944329E-01
    21  2.0000000000000E-01  4.2759551023992E-01 -3.0066427447778E-01
    22  2.1000000000000E-01  4.6629375004217E-01 -3.2532750824141E-01
    23  2.2000000000000E-01  5.0590551601047E-01 -3.5003174469072E-01
    24  2.3000000000000E-01  5.4630617809007E-01 -3.7463084234215E-01
    25  2.4000000000000E-01  5.8736858337102E-01 -3.9897650714339E-01
    26  2.5000000000000E-01  6.2896346585464E-01 -4.2291891794186E-01
    27  2.6000000000000E-01  6.7095986546279E-01 -4.4630737254871E-01
    28  2.7000000000000E-01  7.1322555494045E-01 -4.6899095212613E-01
    29  2.8000000000000E-01  7.5562747322986E-01 -4.9081920135715E-01
    30  2.9000000000000E-01  7.9803216382650E-01 -5.1164282159346E-01
    31  3.0000000000000E-01  8.4030621656372E-01 -5.3131437392245E-01
    32  3.1000000000000E-01  8.8231671121505E-01 -5.4968898885342E-01
    33  3.2000000000000E-01  9.2393166125204E-01 -5.6662507909864E-01
    34  3.3000000000000E-01  9.6502045605140E-01 -5.8198505172099E-01
    35  3.4000000000000E-01  1.0054542998099E+00 -5.9563601574024E-01
    36  3.5000000000000E-01  1.0451066453980E+00 -6.0745048113826E-01
    37  3.6000000000000E-01  1.0838536213671E+00 -6.1730704508167E-01
    38  3.7000000000000E-01  1.1215744503166E+00 -6.2509106109269E-01
    39  3.8000000000000E-01  1.1581518568329E+00 -6.3069528684661E-01
    40  3.9000000000000E-01  1.1934724632257E+00 -6.3402050626068E-01
    41  4.0000000000000E-01  1.2274271713136E+00 -6.3497612156415E-01
    42  4.1000000000000E-01  1.2599115285507E+00 -6.3348071110611E-01
    43  4.2000000000000E-01  1.2908260768329E+00 -6.2946254876518E-01
    44  4.3000000000000E-01  1.3200766823881E+00 -6.2286008097518E-01
    45  4.4000000000000E-01  1.3475748452245E+00 -6.1362235757164E-01
    46  4.5000000000000E-01  1.3732379866970E+00 -6.0170941289599E-01
    47  4.6000000000000E-01  1.3969897138496E+00 -5.8709259386532E-01
    48  4.7000000000000E-01  1.4187600592937E+00 -5.6975483202422E-01
    49  4.8000000000000E-01  1.4384856955032E+00 -5.4969085693907E-01
    50  4.9000000000000E-01  1.4561101225271E+00 -5.2690734867134E-01
    51  5.0000000000000E-01  1.4715838282591E+00 -5.0142302747227E-01
    52  5.1000000000000E-01  1.4848644205408E+00 -4.7326867927203E-01
    53  5.2000000000000E-01  1.4959167305230E+00 -4.4248711598953E-01
    54  5.3000000000000E-01  1.5047128868630E+00 -4.0913307015900E-01
    55  5.4000000000000E-01  1.5112323604912E+00 -3.7327302385235E-01
    56  5.5000000000000E-01  1.5154619798390E+00 -3.3498497236695E-01
    57  5.6000000000000E-01  1.5173959165810E+00 -2.9435812364253E-01
    58  5.7000000000000E-01  1.5170356421059E+00 -2.5149253486240E-01
    59  5.8000000000000E-01  1.5143898550889E+00 -2.0649868817877E-01
    60  5.9000000000000E-01  1.5094743806969E+00 -1.5949700797471E-01
    61  6.0000000000000E-01  1.5023120421102E+00 -1.1061732252983E-01
    62  6.1000000000000E-01  1.4929325051941E+00 -5.9998273390665E-02
    63  6.2000000000000E-01  1.4813720972957E+00 -7.7866761525388E-03
    64  6.3000000000000E-01  1.4676736012755E+00  4.5863163264254E-02
    65  6.4000000000000E-01  1.4518860260122E+00  1.0079017242101E-01
    66  6.5000000000000E-01  1.4340643547338E+00  1.5682727152521E-01
    67  6.6000000000000E-01  1.4142692726359E+00  2.1380216296861E-01
    68  6.7000000000000E-01  1.3925668753452E+00  2.7153814603925E-01
    69  6.8000000000000E-01  1.3690283598673E+00  3.2985495143997E-01
    70  6.9000000000000E-01  1.3437296997315E+00  3.8856959012652E-01
    71  7.0000000000000E-01  1.3167513061033E+00  4.4749721090923E-01
    72  7.1000000000000E-01  1.2881776766791E+00  5.0645196124333E-01
    73  7.2000000000000E-01  1.2580970342136E+00  5.6524784566502E-01
    74  7.3000000000000E-01  1.2266009565431E+00  6.2369957641218E-01
    75  7.4000000000000E-01  1.1937839999799E+00  6.8162341089959E-01
    76  7.5000000000000E-01  1.1597433179394E+00  7.3883797089664E-01
    77  7.6000000000000E-01  1.1245782766453E+00  7.9516503847860E-01
    78  7.7000000000000E-01  1.0883900697230E+00  8.5043032408822E-01
    79  7.8000000000000E-01  1.0512813334491E+00  9.0446420234868E-01
    80  7.9000000000000E-01  1.0133557643681E+00  9.5710241160904E-01
    81  8.0000000000000E-01  9.7471774092301E-01  1.0081867135745E+00
    82  8.1000000000000E-01  9.3547195067193E-01  1.0575655097721E+00
    83  8.2000000000000E-01  8.9572302458056E-01  1.1050944120226E+00
    84  8.3000000000000E-01  8.5557517978960E-01  1.1506367645277E+00
    85  8.4000000000000E-01  8.1513187216137E-01  1.1940641156302E+00
    86  8.5000000000000E-01  7.7449545980815E-01  1.2352566377639E+00
    87  8.6000000000000E-01  7.3376687870064E-01  1.2741034945668E+00
    88  8.7000000000000E-01  6.9304533134732E-01  1.3105031545869E+00
    89  8.8000000000000E-01  6.5242798942653E-01  1.3443636514581E+00
    90  8.9000000000000E-01  6.1200971114419E-01  1.3756027908546E+00
    91  9.0000000000000E-01  5.7188277398099E-01  1.4041483049510E+00
    92  9.1000000000000E-01  5.3213662338660E-01  1.4299379555039E+00
    93  9.2000000000000E-01  4.9285763787377E-01  1.4529195870407E+00
    94  9.3000000000000E-01  4.5412891086522E-01  1.4730511319749E+00
    95  9.4000000000000E-01  4.1603004954965E-01  1.4903005697706E+00
    96  9.5000000000000E-01  3.7863699091259E-01  1.5046458425444E+00
    97  9.6000000000000E-01  3.4202183502264E-01  1.5160747297216E+00
    98  9.7000000000000E-01  3.0625269557470E-01  1.5245846845499E+00
    99  9.8000000000000E-01  2.7139356761972E-01  1.5301826354201E+00
   100  9.9000000000000E-01  2.3750421234543E-01  1.5328847550496E+00
   101  1.0000000000000E+00  2.0464005871458E-01  1.5327162006433E+00
   102  1.0100000000000E+00  1.7285212171621E-01  1.5297108281717E+00
   103  1.0200000000000E+00  1.4218693694240E-01  1.5239108838849E+00
   104  1.0300000000000E+00  1.1268651116598E-01  1.5153666761235E+00
   105  1.0400000000000E+00  8.4388288564951E-02  1.5041362303976E+00
   106  1.0500000000000E+00  5.7325132216076E-02  1.4902849305723E+00
   107  1.0600000000000E+00  3.1525320462282E-02  1.4738851488487E+00
   108  1.0700000000000E+00  7.0125577463334E-03  1.4550158670370E+00
   109  1.0800000000000E+00 -1.6194000504219E-02  1.4337622914190E+00
   110  1.0900000000000E+00 -3.8079709359399E-02  1.4102154632664E+00
   111  1.1000000000000E+00 -5.8634382655177E-02  1.3844718668436E+00
   112  1.1100000000000E+00 -7.7852228464125E-02  1.3566330364727E+00
   113  1.1200000000000E+00 -9.5731772180517E-02  1.3268051639839E+00
   114  1.1300000000000E+00 -1.1227576762679E-01  1.2950987076172E+00
   115  1.1400000000000E+00 -1.2749109658287E-01  1.2616280031899E+00
   116  1.1500000000000E+00 -1.4138865713502E-01  1.2265108781005E+00
   117  1.1600000000000E+00 -1.5398324123717E-01  1.1898682685080E+00
   118  1.1700000000000E+00 -1.6529340187607E-01  1.1518238398120E+00
   119  1.1800000000000E+00 -1.7534131023223E-01  1.1125036103627E+00
   120  1.1900000000000E+00 -1.8415260323274E-01  1.0720355781626E+00
   121  1.2000000000000E+00 -1.9175622189921E-01  1.0305493501756E+00
   122  1.2100000000000E+00 -1.9818424090565E-01  9.8817577374506E-01