Zn    ONCVPSP-4.0.1  r_core=   2.25352   1.92892   2.09742
     30.0000     20.0000      230118    zatom,zion,pspd
     8       2   2     4   600     0    pspcod,pspxc,lmax,lloc,mmax,r2well
  5.99000000  2.50000000  0.00000000    rchrg fchrg qchrg
     2     2     2     0     0    nproj
     1     1           extension_switch
   0                        -4.6017756691523E+00 -7.1568361712330E-01
     1  0.0000000000000E+00 -1.6534551505742E-12  7.8463902042358E-12
     2  1.0000000000000E-02  4.4361840734979E-02 -4.0191917438764E-02
     3  2.0000000000000E-02  8.8671916125510E-02 -8.0280719463494E-02
     4  3.0000000000000E-02  1.3287854830046E-01 -1.2016354330859E-01
     5  4.0000000000000E-02  1.7693023415509E-01 -1.5973803083626E-01
     6  5.0000000000000E-02  2.2077573228412E-01 -1.9890257917978E-01
     7  6.0000000000000E-02  2.6436414937568E-01 -2.3755658938753E-01
     8  7.0000000000000E-02  3.0764502588860E-01 -2.7560071241068E-01
     9  8.0000000000000E-02  3.5056842083666E-01 -3.1293709178530E-01
    10  9.0000000000000E-02  3.9308499550601E-01 -3.4946960236935E-01
    11  1.0000000000000E-01  4.3514609593391E-01 -3.8510408450693E-01
    12  1.1000000000000E-01  4.7670383398022E-01 -4.1974857300540E-01
    13  1.2000000000000E-01  5.1771116682596E-01 -4.5331352032651E-01
    14  1.3000000000000E-01  5.5812197473694E-01 -4.8571201340953E-01
    15  1.4000000000000E-01  5.9789113693472E-01 -5.1685998356318E-01
    16  1.5000000000000E-01  6.3697460542096E-01 -5.4667640888323E-01
    17  1.6000000000000E-01  6.7532947660635E-01 -5.7508350867462E-01
    18  1.7000000000000E-01  7.1291406060020E-01 -6.0200692938000E-01
    19  1.8000000000000E-01  7.4968794802185E-01 -6.2737592154115E-01
    20  1.9000000000000E-01  7.8561207420121E-01 -6.5112350734562E-01
    21  2.0000000000000E-01  8.2064878064119E-01 -6.7318663833778E-01
    22  2.1000000000000E-01  8.5476187362129E-01 -6.9350634290156E-01
    23  2.2000000000000E-01  8.8791667982813E-01 -7.1202786315120E-01
    24  2.3000000000000E-01  9.2008009890525E-01 -7.2870078089618E-01
    25  2.4000000000000E-01  9.5122065282172E-01 -7.4347913237701E-01
    26  2.5000000000000E-01  9.8130853196617E-01 -7.5632151150022E-01
    27  2.6000000000000E-01  1.0103156378803E+00 -7.6719116133247E-01
    28  2.7000000000000E-01  1.0382156225538E+00 -7.7605605364617E-01
    29  2.8000000000000E-01  1.0649839242092E+00 -7.8288895634189E-01
    30  2.9000000000000E-01  1.0905977995156E+00 -7.8766748860558E-01
    31  3.0000000000000E-01  1.1150363521749E+00 -7.9037416369203E-01
    32  3.1000000000000E-01  1.1382805578354E+00 -7.9099641925928E-01
    33  3.2000000000000E-01  1.1603132852937E+00 -7.8952663521165E-01
    34  3.3000000000000E-01  1.1811193139556E+00 -7.8596213904270E-01
    35  3.4000000000000E-01  1.2006853475342E+00 -7.8030519870181E-01
    36  3.5000000000000E-01  1.2190000239718E+00 -7.7256300304134E-01
    37  3.6000000000000E-01  1.2360539215817E+00 -7.6274762993313E-01
    38  3.7000000000000E-01  1.2518395614127E+00 -7.5087600217541E-01
    39  3.8000000000000E-01  1.2663514058493E+00 -7.3696983134209E-01
    40  3.9000000000000E-01  1.2795858534671E+00 -7.2105554975783E-01
    41  4.0000000000000E-01  1.2915412301729E+00 -7.0316423081164E-01
    42  4.1000000000000E-01  1.3022177766667E+00 -6.8333149785190E-01
    43  4.2000000000000E-01  1.3116176322693E+00 -6.6159742193377E-01
    44  4.3000000000000E-01  1.3197448151700E+00 -6.3800640871817E-01
    45  4.4000000000000E-01  1.3266051991545E+00 -6.1260707484802E-01
    46  4.5000000000000E-01  1.3322064868818E+00 -5.8545211415390E-01
    47  4.6000000000000E-01  1.3365581797863E+00 -5.5659815406568E-01
    48  4.7000000000000E-01  1.3396715446879E+00 -5.2610560263117E-01
    49  4.8000000000000E-01  1.3415595772014E+00 -4.9403848656525E-01
    50  4.9000000000000E-01  1.3422369620422E+00 -4.6046428077516E-01
    51  5.0000000000000E-01  1.3417200303321E+00 -4.2545372982767E-01
    52  5.1000000000000E-01  1.3400267140160E+00 -3.8908066184389E-01
    53  5.2000000000000E-01  1.3371764975063E+00 -3.5142179532516E-01
    54  5.3000000000000E-01  1.3331903666762E+00 -3.1255653943076E-01
    55  5.4000000000000E-01  1.3280907553311E+00 -2.7256678824357E-01
    56  5.5000000000000E-01  1.3219014892902E+00 -2.3153670957451E-01
    57  5.6000000000000E-01  1.3146477282172E+00 -1.8955252886925E-01
    58  5.7000000000000E-01  1.3063559053413E+00 -1.4670230879266E-01
    59  5.8000000000000E-01  1.2970536652164E+00 -1.0307572507658E-01
    60  5.9000000000000E-01  1.2867697996685E+00 -5.8763839225452E-02
    61  6.0000000000000E-01  1.2755341820850E+00 -1.3858868681758E-02
    62  6.1000000000000E-01  1.2633777002035E+00  3.1546044940638E-02
    63  6.2000000000000E-01  1.2503321875590E+00  7.7357068942842E-02
    64  6.3000000000000E-01  1.2364303537526E+00  1.2347991333125E-01
    65  6.4000000000000E-01  1.2217057137044E+00  1.6982006469478E-01
    66  6.5000000000000E-01  1.2061925160566E+00  2.1628301955168E-01
    67  6.6000000000000E-01  1.1899256708931E+00  2.6277451655044E-01
    68  6.7000000000000E-01  1.1729406769428E+00  3.0920076691187E-01
    69  6.8000000000000E-01  1.1552735484330E+00  3.5546868250453E-01
    70  6.9000000000000E-01  1.1369607417615E+00  4.0148610095146E-01
    71  7.0000000000000E-01  1.1180390821523E+00  4.4716200717424E-01
    72  7.1000000000000E-01  1.0985456904613E+00  4.9240675078928E-01
    73  7.2000000000000E-01  1.0785179102954E+00  5.3713225878283E-01
    74  7.3000000000000E-01  1.0579932356077E+00  5.8125224290282E-01
    75  7.4000000000000E-01  1.0370092389282E+00  6.2468240122052E-01
    76  7.5000000000000E-01  1.0156035003866E+00  6.6734061333008E-01
    77  7.6000000000000E-01  9.9381353768288E-01  7.0914712867133E-01
    78  7.7000000000000E-01  9.7167673715409E-01  7.5002474748004E-01
    79  7.8000000000000E-01  9.4923028608607E-01  7.8989899388992E-01
    80  7.9000000000000E-01  9.2651110641121E-01  8.2869828073232E-01
    81  8.0000000000000E-01  9.0355578993076E-01  8.6635406560287E-01
    82  8.1000000000000E-01  8.8040053519460E-01  9.0280099778861E-01
    83  8.2000000000000E-01  8.5708108616603E-01  9.3797705567541E-01
    84  8.3000000000000E-01  8.3363267279390E-01  9.7182367428233E-01
    85  8.4000000000000E-01  8.1008995360803E-01  1.0042858625983E+00
    86  8.5000000000000E-01  7.8648696044822E-01  1.0353123104261E+00
    87  8.6000000000000E-01  7.6285704543021E-01  1.0648554844694E+00
    88  8.7000000000000E-01  7.3923283024561E-01  1.0928717134306E+00
    89  8.8000000000000E-01  7.1564615788570E-01  1.1193212619192E+00
    90  8.9000000000000E-01  6.9212804687182E-01  1.1441683930056E+00
    91  9.0000000000000E-01  6.6870864806794E-01  1.1673814192885E+00
    92  9.1000000000000E-01  6.4541720414321E-01  1.1889327423787E+00
    93  9.2000000000000E-01  6.2228201174500E-01  1.2087988807391E+00
    94  9.3000000000000E-01  5.9933038643472E-01  1.2269604858570E+00
    95  9.4000000000000E-01  5.7658863043127E-01  1.2434023467575E+00
    96  9.5000000000000E-01  5.5408200319877E-01  1.2581133829100E+00
    97  9.6000000000000E-01  5.3183469490737E-01  1.2710866256092E+00
    98  9.7000000000000E-01  5.0986980278777E-01  1.2823191879541E+00
    99  9.8000000000000E-01  4.8820931039219E-01  1.2918122235822E+00
   100  9.9000000000000E-01  4.6687406976668E-01  1.2995708743521E+00
   101  1.0000000000000E+00  4.4588378653125E-01  1.3056042072051E+00
   102  1.0100000000000E+00  4.2525700785714E-01  1.3099251404688E+00
   103  1.0200000000000E+00  4.0501111332207E-01  1.3125503599013E+00
   104  1.0300000000000E+00  3.8516230861731E-01  1.3135002248078E+00
   105  1.0400000000000E+00  3.6572562207251E-01  1.3127986645930E+00
   106  1.0500000000000E+00  3.4671490395710E-01  1.3104730661438E+00
   107  1.0600000000000E+00  3.2814282851005E-01  1.3065541524662E+00
   108  1.0700000000000E+00  3.1002089864260E-01  1.3010758530290E+00
   109  1.0800000000000E+00  2.9235945325239E-01  1.2940751662923E+00
   110  1.0900000000000E+00  2.7516767708047E-01  1.2855920149242E+00
   111  1.1000000000000E+00  2.5845361303719E-01  1.2756690942336E+00
   112  1.1100000000000E+00  2.4222417691658E-01  1.2643517143629E+00
   113  1.1200000000000E+00  2.2648517441383E-01  1.2516876368106E+00
   114  1.1300000000000E+00  2.1124132035505E-01  1.2377269058635E+00
   115  1.1400000000000E+00  1.9649626004373E-01  1.2225216755374E+00
   116  1.1500000000000E+00  1.8225259262405E-01  1.2061260326355E+00
   117  1.1600000000000E+00  1.6851189635685E-01  1.1885958165429E+00
   118  1.1700000000000E+00  1.5527475570067E-01  1.1699884363850E+00
   119  1.1800000000000E+00  1.4254079008675E-01  1.1503626861802E+00
   120  1.1900000000000E+00  1.3030868427419E-01  1.1297785586217E+00
   121  1.2000000000000E+00  1.1857622016880E-01  1.1082970581210E+00
   122  1.2100000000000E+00  1.0734030998723E-01  1.0859800137453E+00
   123  1.2200000000000E+00  9.6597030646287E-02  1.0628898926739E+00
   124  1.2300000000000E+00  8.6341659256064E-02  1.0390896147926E+00
   125  1.2400000000000E+00  7.6568709594628E-02  1.0146423690333E+00
   126  1.2500000000000E+00  6.7271969441754E-02  9.8961143205620E-01
   127  1.2600000000000E+00  5.8444538648960E-02  9.6405998985359E-01
   128  1.2700000000000E+00  5.0078867823631E-02  9.3805096284050E-01
   129  1.2800000000000E+00  4.2166797505714E-02  9.1164683497622E-01
   130  1.2900000000000E+00  3.4699597716643E-02  8.8490948743999E-01
   131  1.3000000000000E+00  2.7668007761679E-02  8.5790003736091E-01
   132  1.3100000000000E+00  2.1062276168732E-02  8.3067868207675E-01
   133  1.3200000000000E+00  1.4872200648975E-02  8.0330454936956E-01
   134  1.3300000000000E+00  9.0871679671179E-03  7.7583555409764E-01
   135  1.3400000000000E+00  3.6961936121201E-03  7.4832826161316E-01
   136  1.3500000000000E+00 -1.3120388377087E-03  7.2083775832387E-01
   137  1.3600000000000E+00 -5.9491387577796E-03  6.9341752972488E-01
   138  1.3700000000000E+00 -1.0226970027292E-02  6.6611934619315E-01
   139  1.3800000000000E+00 -1.4157613181119E-02  6.3899315680323E-01
   140  1.3900000000000E+00 -1.7753328254137E-02  6.1208699138830E-01
   141  1.4000000000000E+00 -2.1026518404155E-02  5.8544687103498E-01
   142  1.4100000000000E+00 -2.3989694395052E-02  5.5911672716536E-01
   143  1.4200000000000E+00 -2.6655440016880E-02  5.3313832932400E-01
   144  1.4300000000000E+00 -2.9036378514836E-02  5.0755122175201E-01
   145  1.4400000000000E+00 -3.1145140093906E-02  4.8239266879541E-01
   146  1.4500000000000E+00 -3.2994330560881E-02  4.5769760916002E-01
   147  1.4600000000000E+00 -3.4596501160205E-02  4.3349861899085E-01
   148  1.4700000000000E+00 -3.5964119654855E-02  4.0982588372058E-01
   149  1.4800000000000E+00 -3.7109542698092E-02  3.8670717859911E-01
   150  1.4900000000000E+00 -3.8044989536668E-02  3.6416785778451E-01
   151  1.5000000000000E+00 -3.8782517080671E-02  3.4223085184554E-01
   152  1.5100000000000E+00 -3.9333996369970E-02  3.2091667349647E-01
   153  1.5200000000000E+00 -3.9711090461898E-02  3.0024343135767E-01
   154  1.5300000000000E+00 -3.9925233759682E-02  2.8022685150905E-01
   155  1.5400000000000E+00 -3.9987612795991E-02  2.6088030657905E-01
   156  1.5500000000000E+00 -3.9909148480974E-02  2.4221485208902E-01
   157  1.5600000000000E+00 -3.9700479819259E-02  2.2423926975197E-01
   158  1.5700000000000E+00 -3.9371949095640E-02  2.0696011740547E-01
   159  1.5800000000000E+00 -3.8933588524530E-02  1.9038178524129E-01
   160  1.5900000000000E+00 -3.8395108353831E-02  1.7450655797902E-01
   161  1.6000000000000E+00 -3.7765886409546E-02  1.5933468261804E-01
   162  1.6100000000000E+00 -3.7054959063345E-02  1.4486444139014E-01
   163  1.6200000000000E+00 -3.6271013601417E-02  1.3109222952687E-01
   164  1.6300000000000E+00 -3.5422381969142E-02  1.1801263744743E-01
   165  1.6400000000000E+00 -3.4517035862650E-02  1.0561853696824E-01
   166  1.6500000000000E+00 -3.3562583134999E-02  9.3901171131909E-02
   167  1.6600000000000E+00 -3.2566265481629E-02  8.2850247251447E-02
   168  1.6700000000000E+00 -3.1534957366844E-02  7.2454032766661E-02
   169  1.6800000000000E+00 -3.0475166150457E-02  6.2699453511285E-02
   170  1.6900000000000E+00 -2.9393033371301E-02  5.3572193993700E-02
   171  1.7000000000000E+00 -2.8294337142098E-02  4.5056799299555E-02
   172  1.7100000000000E+00 -2.7184495608229E-02  3.7136778231846E-02
   173  1.7200000000000E+00 -2.6068571421181E-02  2.9794707312547E-02
   174  1.7300000000000E+00 -2.4951277175947E-02  2.3012335280100E-02
   175  1.7400000000000E+00 -2.3836981760323E-02  1.6770687728171E-02
   176  1.7500000000000E+00 -2.2729717562997E-02  1.1050171543760E-02
   177  1.7600000000000E+00 -2.1633188486416E-02  5.8306788162032E-03
   178  1.7700000000000E+00 -2.0550778709766E-02  1.0916899031401E-03
   179  1.7800000000000E+00 -1.9485562146931E-02 -3.1876246450720E-03
   180  1.7900000000000E+00 -1.8440312544022E-02 -7.0283035850347E-03
   181  1.8000000000000E+00 -1.7417514160978E-02 -1.0451496169798E-02
   182  1.8100000000000E+00 -1.6419372981840E-02 -1.3478365276756E-02
   183  1.8200000000000E+00 -1.5447828398560E-02 -1.6129992704976E-02
   184  1.8300000000000E+00 -1.4504565313635E-02 -1.8427286855050E-02
   185  1.8400000000000E+00 -1.3591026607438E-02 -2.0390892986607E-02
   186  1.8500000000000E+00 -1.2708425916862E-02 -2.2041106230488E-02
   187  1.8600000000000E+00 -1.1857760672729E-02 -2.3397787514573E-02
   188  1.8700000000000E+00 -1.1039825344464E-02 -2.4480282544151E-02
   189  1.8800000000000E+00 -1.0255224841570E-02 -2.5307343960460E-02
   190  1.8900000000000E+00 -9.5043880300391E-03 -2.5897056631082E-02
   191  1.9000000000000E+00 -8.7875813106178E-03 -2.6266766277610E-02
   192  1.9100000000000E+00 -8.1049218669184E-03 -2.6433018669725E-02
   193  1.9200000000000E+00 -7.4563926307220E-03 -2.6411465915299E-02
   194  1.9300000000000E+00 -6.8418481791000E-03 -2.6216963939346E-02
   195  1.9400000000000E+00 -6.2610063848684E-03 -2.5863965175360E-02
   196  1.9500000000000E+00 -5.7134442958063E-03 -2.5366816544986E-02
   197  1.9600000000000E+00 -5.1986110302683E-03 -2.4739699953047E-02
   198  1.9700000000000E+00 -4.7158398536265E-03 -2.3996589906831E-02
   199  1.9800000000000E+00 -4.2643602955530E-03 -2.3151209327272E-02
   200  1.9900000000000E+00 -3.8433100043253E-03 -2.2216989117217E-02
   201  2.0000000000000E+00 -3.4517463601225E-03 -2.1207030250770E-02
   202  2.0100000000000E+00 -3.0886577905977E-03 -2.0134068831466E-02
   203  2.0200000000000E+00 -2.7529747615487E-03 -1.9010443985628E-02
   204  2.0300000000000E+00 -2.4435804133647E-03 -1.7848068538885E-02
   205  2.0400000000000E+00 -2.1593208162110E-03 -1.6658402416216E-02
   206  2.0500000000000E+00 -1.8990148189957E-03 -1.5452428699797E-02
   207  2.0600000000000E+00 -1.6614634692794E-03 -1.4240632273658E-02
   208  2.0700000000000E+00 -1.4454589833697E-03 -1.3032980979670E-02
   209  2.0800000000000E+00 -1.2497932479341E-03 -1.1838909205785E-02
   210  2.0900000000000E+00 -1.0732658362657E-03 -1.0667303824923E-02
   211  2.1000000000000E+00 -9.1469146350099E-04 -9.5264922458746E-03
   212  2.1100000000000E+00 -7.7290729513195E-04 -8.4242335754150E-03
   213  2.1200000000000E+00 -6.4677910347830E-04 -7.3677103524757E-03
   214  2.1300000000000E+00 -5.3520618682778E-04 -6.3635195536084E-03
   215  2.1400000000000E+00 -4.3713207355444E-04 -5.4176871334796E-03
   216  2.1500000000000E+00 -3.5160696359258E-04 -4.5357980689823E-03
   217  2.1600000000000E+00 -2.7773850113854E-04 -3.7228516418806E-03
   218  2.1700000000000E+00 -2.1456141011851E-04 -2.9829343447662E-03
   219  2.1800000000000E+00 -1.6117540667042E-04 -2.3195935294458E-03
   220  2.1900000000000E+00 -1.1674876683887E-04 -1.7358403936114E-03
   221  2.2000000000000E+00 -8.0516365460256E-05 -1.2341403822866E-03
   222  2.2100000000000E+00 -5.1781635287451E-05 -8.1641938816605E-04
   223  2.2200000000000E+00 -2.9927198196432E-05 -4.8424465476490E-04
   224  2.2300000000000E+00 -1.4326913495777E-05 -2.3728530501077E-04
   225  2.2400000000000E+00 -4.6339957203065E-06 -7.8387457371416E-05
   226  2.2500000000000E+00 -5.0437800742444E-07 -8.7257613490679E-06
   227  2.2600000000000E+00  2.1002602860193E-07  3.6638571172025E-06
   228  2.2700000000000E+00 -4.9141349038543E-08 -8.4764916087934E-07
   229  2.28 -0. -0.
   230  2.29  0.  0.
   231  2.30 -0. -0.
   232  2.31  0.  0.
   233  2.32  0.  0.
   234  2.33  0.  0.
   235  2.34  0.  0.
   236  2.35  0.  0.
   237  2.36  0.  0.
   238  2.37  0.  0.
   239  2.38  0.  0.
   240  2.39  0.  0.
   241  2.40  0.  0.
   242  2.41  0.  0.
   243  2.42  0.  0.
   244  2.43  0.  0.
   245  2.44  0.  0.
   246  2.45  0.  0.
   247  2.46  0.  0.
   248  2.47  0.  0.
   249  2.48  0.  0.
   250  2.49  0.  0.
   251  2.50  0.  0.
   252  2.51  0.  0.
   253  2.52  0.  0.
   254  2.53  0.  0.
   255  2.54  0.  0.
   256  2.55  0.  0.
   257  2.56  0.  0.
   258  2.57  0.  0.
   259  2.58  0.  0.
   260  2.59  0.  0.
   261  2.60  0.  0.
   262  2.61  0.  0.
   263  2.62  0.  0.
   264  2.63  0.  0.
   265  2.64  0.  0.
   266  2.65  0.  0.
   267  2.66  0.  0.
   268  2.67  0.  0.
   269  2.68  0.  0.
   270  2.69  0.  0.
   271  2.70  0.  0.
   272  2.71  0.  0.
   273  2.72  0.  0.
   274  2.73  0.  0.
   275  2.74  0.  0.
   276  2.75  0.  0.
   277  2.76  0.  0.
   278  2.77  0.  0.
   279  2.78  0.  0.
   280  2.79  0.  0.
   281  2.80  0.  0.
   282  2.81  0.  0.
   283  2.82  0.  0.
   284  2.83  0.  0.
   285  2.84  0.  0.
   286  2.85  0.  0.
   287  2.86  0.  0.
   288  2.87  0.  0.
   289  2.88  0.  0.
   290  2.89  0.  0.
   291  2.90  0.  0.
   292  2.91  0.  0.
   293  2.92  0.  0.
   294  2.93  0.  0.
   295  2.94  0.  0.
   296  2.95  0.  0.
   297  2.96  0.  0.
   298  2.97  0.  0.
   299  2.98  0.  0.
   300  2.99  0.  0.
   301  3.00  0.  0.
   302  3.01  0.  0.
   303  3.02  0.  0.
   304  3.03  0.  0.
   305  3.04  0.  0.
   306  3.05  0.  0.
   307  3.06  0.  0.
   308  3.07  0.  0.
   309  3.08  0.  0.
   310  3.09  0.  0.
   311  3.10  0.  0.
   312  3.11  0.  0.
   313  3.12  0.  0.
   314  3.13  0.  0.
   315  3.14  0.  0.
   316  3.15  0.  0.
   317  3.16  0.  0.
   318  3.17  0.  0.
   319  3.18  0.  0.
   320  3.19  0.  0.
   321  3.20  0.  0.
   322  3.21  0.  0.
   323  3.22  0.  0.
   324  3.23  0.  0.
   325  3.24  0.  0.
   326  3.25  0.  0.
   327  3.26  0.  0.
   328  3.27  0.  0.
   329  3.28  0.  0.
   330  3.29  0.  0.
   331  3.30  0.  0.
   332  3.31  0.  0.
   333  3.32  0.  0.
   334  3.33  0.  0.
   335  3.34  0.  0.
   336  3.35  0.  0.
   337  3.36  0.  0.
   338  3.37  0.  0.
   339  3.38  0.  0.
   340  3.39  0.  0.
   341  3.40  0.  0.
   342  3.41  0.  0.
   343  3.42  0.  0.
   344  3.43  0.  0.
   345  3.44  0.  0.
   346  3.45  0.  0.
   347  3.46  0.  0.
   348  3.47  0.  0.
   349  3.48  0.  0.
   350  3.49  0.  0.
   351  3.50  0.  0.
   352  3.51  0.  0.
   353  3.52  0.  0.
   354  3.53  0.  0.
   355  3.54  0.  0.
   356  3.55  0.  0.
   357  3.56  0.  0.
   358  3.57  0.  0.
   359  3.58  0.  0.
   360  3.59  0.  0.
   361  3.60  0.  0.
   362  3.61  0.  0.
   363  3.62  0.  0.
   364  3.63  0.  0.
   365  3.64  0.  0.
   366  3.65  0.  0.
   367  3.66  0.  0.
   368  3.67  0.  0.
   369  3.68  0.  0.
   370  3.69  0.  0.
   371  3.70  0.  0.
   372  3.71  0.  0.
   373  3.72  0.  0.
   374  3.73  0.  0.
   375  3.74  0.  0.
   376  3.75  0.  0.
   377  3.76  0.  0.
   378  3.77  0.  0.
   379  3.78  0.  0.
   380  3.79  0.  0.
   381  3.80  0.  0.
   382  3.81  0.  0.
   383  3.82  0.  0.
   384  3.83  0.  0.
   385  3.84  0.  0.
   386  3.85  0.  0.
   387  3.86  0.  0.
   388  3.87  0.  0.
   389  3.88  0.  0.
   390  3.89  0.  0.
   391  3.90  0.  0.
   392  3.91  0.  0.
   393  3.92  0.  0.
   394  3.93  0.  0.
   395  3.94  0.  0.
   396  3.95  0.  0.
   397  3.96  0.  0.
   398  3.97  0.  0.
   399  3.98  0.  0.
   400  3.99  0.  0.
   401  4.00  0.  0.
   402  4.01  0.  0.
   403  4.02  0.  0.
   404  4.03  0.  0.
   405  4.04  0.  0.
   406  4.05  0.  0.
   407  4.06  0.  0.
   408  4.07  0.  0.
   409  4.08  0.  0.
   410  4.09  0.  0.
   411  4.10  0.  0.
   412  4.11  0.  0.
   413  4.12  0.  0.
   414  4.13  0.  0.
   415  4.14  0.  0.
   416  4.15  0.  0.
   417  4.16  0.  0.
   418  4.17  0.  0.
   419  4.18  0.  0.
   420  4.19  0.  0.
   421  4.20  0.  0.
   422  4.21  0.  0.
   423  4.22  0.  0.
   424  4.23  0.  0.
   425  4.24  0.  0.
   426  4.25  0.  0.
   427  4.26  0.  0.
   428  4.27  0.  0.
   429  4.28  0.  0.
   430  4.29  0.  0.
   431  4.30  0.  0.
   432  4.31  0.  0.
   433  4.32  0.  0.
   434  4.33  0.  0.
   435  4.34  0.  0.
   436  4.35  0.  0.
   437  4.36  0.  0.
   438  4.37  0.  0.
   439  4.38  0.  0.
   440  4.39  0.  0.
   441  4.40  0.  0.
   442  4.41  0.  0.
   443  4.42  0.  0.
   444  4.43  0.  0.
   445  4.44  0.  0.
   446  4.45  0.  0.
   447  4.46  0.  0.
   448  4.47  0.  0.
   449  4.48  0.  0.
   450  4.49  0.  0.
   451  4.50  0.  0.
   452  4.51  0.  0.
   453  4.52  0.  0.
   454  4.53  0.  0.
   455  4.54  0.  0.
   456  4.55  0.  0.
   457  4.56  0.  0.
   458  4.57  0.  0.
   459  4.58  0.  0.
   460  4.59  0.  0.
   461  4.60  0.  0.
   462  4.61  0.  0.
   463  4.62  0.  0.
   464  4.63  0.  0.
   465  4.64  0.  0.
   466  4.65  0.  0.
   467  4.66  0.  0.
   468  4.67  0.  0.
   469  4.68  0.  0.
   470  4.69  0.  0.
   471  4.70  0.  0.
   472  4.71  0.  0.
   473  4.72  0.  0.
   474  4.73  0.  0.
   475  4.74  0.  0.
   476  4.75  0.  0.
   477  4.76  0.  0.
   478  4.77  0.  0.
   479  4.78  0.  0.
   480  4.79  0.  0.
   481  4.80  0.  0.
   482  4.81  0.  0.
   483  4.82  0.  0.
   484  4.83  0.  0.
   485  4.84  0.  0.
   486  4.85  0.  0.
   487  4.86  0.  0.
   488  4.87  0.  0.
   489  4.88  0.  0.
   490  4.89  0.  0.
   491  4.90  0.  0.
   492  4.91  0.  0.
   493  4.92  0.  0.
   494  4.93  0.  0.
   495  4.94  0.  0.
   496  4.95  0.  0.
   497  4.96  0.  0.
   498  4.97  0.  0.
   499  4.98  0.  0.
   500  4.99  0.  0.
   501  5.00  0.  0.
   502  5.01  0.  0.
   503  5.02  0.  0.
   504  5.03  0.  0.
   505  5.04  0.  0.
   506  5.05  0.  0.
   507  5.06  0.  0.
   508  5.07  0.  0.
   509  5.08  0.  0.
   510  5.09  0.  0.
   511  5.10  0.  0.
   512  5.11  0.  0.
   513  5.12  0.  0.
   514  5.13  0.  0.
   515  5.14  0.  0.
   516  5.15  0.  0.
   517  5.16  0.  0.
   518  5.17  0.  0.
   519  5.18  0.  0.
   520  5.19  0.  0.
   521  5.20  0.  0.
   522  5.21  0.  0.
   523  5.22  0.  0.
   524  5.23  0.  0.
   525  5.24  0.  0.
   526  5.25  0.  0.
   527  5.26  0.  0.
   528  5.27  0.  0.
   529  5.28  0.  0.
   530  5.29  0.  0.
   531  5.30  0.  0.
   532  5.31  0.  0.
   533  5.32  0.  0.
   534  5.33  0.  0.
   535  5.34  0.  0.
   536  5.35  0.  0.
   537  5.36  0.  0.
   538  5.37  0.  0.
   539  5.38  0.  0.
   540  5.39  0.  0.
   541  5.40  0.  0.
   542  5.41  0.  0.
   543  5.42  0.  0.
   544  5.43  0.  0.
   545  5.44  0.  0.
   546  5.45  0.  0.
   547  5.46  0.  0.
   548  5.47  0.  0.
   549  5.48  0.  0.
   550  5.49  0.  0.
   551  5.50  0.  0.
   552  5.51  0.  0.
   553  5.52  0.  0.
   554  5.53  0.  0.
   555  5.54  0.  0.
   556  5.55  0.  0.
   557  5.56  0.  0.
   558  5.57  0.  0.
   559  5.58  0.  0.
   560  5.59  0.  0.
   561  5.60  0.  0.
   562  5.61  0.  0.
   563  5.62  0.  0.
   564  5.63  0.  0.
   565  5.64  0.  0.
   566  5.65  0.  0.
   567  5.66  0.  0.
   568  5.67  0.  0.
   569  5.68  0.  0.
   570  5.69  0.  0.
   571  5.70  0.  0.
   572  5.71  0.  0.
   573  5.72  0.  0.
   574  5.73  0.  0.
   575  5.74  0.  0.
   576  5.75  0.  0.
   577  5.76  0.  0.
   578  5.77  0.  0.
   579  5.78  0.  0.
   580  5.79  0.  0.
   581  5.80  0.  0.
   582  5.81  0.  0.
   583  5.82  0.  0.
   584  5.83  0.  0.
   585  5.84  0.  0.
   586  5.85  0.  0.
   587  5.86  0.  0.
   588  5.87  0.  0.
   589  5.88  0.  0.
   590  5.89  0.  0.
   591  5.90  0.  0.
   592  5.91  0.  0.
   593  5.92  0.  0.
   594  5.93  0.  0.
   595  5.94  0.  0.
   596  5.95  0.  0.
   597  5.96  0.  0.
   598  5.97  0.  0.
   599  5.98  0.  0.
   600  5.99  0.  0.
   1                        -6.7069251082876E+00 -2.2620377127985E+00
     1  0.0000000000000E+00  1.1015557910277E-10 -2.8904524607132E-10
     2  1.0000000000000E-02  1.1407725299451E-03 -8.9330267284880E-04
     3  2.0000000000000E-02  4.5594595539453E-03 -3.5681982555854E-03
     4  3.0000000000000E-02  1.0245182424823E-02 -8.0096751429548E-03
     5  4.0000000000000E-02  1.8179853507352E-02 -1.4192799513432E-02
     6  5.0000000000000E-02  2.8338241141783E-02 -2.2082843074412E-02
     7  6.0000000000000E-02  4.0688060190821E-02 -3.1635460838215E-02
     8  7.0000000000000E-02  5.5190087770839E-02 -4.2796917870829E-02
     9  8.0000000000000E-02  7.1798303657979E-02 -5.5504363666311E-02
    10  9.0000000000000E-02  9.0460054752552E-02 -6.9686152520289E-02
    11  1.0000000000000E-01  1.1111624288139E-01 -8.5262208008363E-02
    12  1.1000000000000E-01  1.3370153511813E-01 -1.0214442942114E-01
    13  1.2000000000000E-01  1.5814459570642E-01 -1.2023713776899E-01
    14  1.3000000000000E-01  1.8436833858092E-01 -1.3943755874792E-01
    15  1.4000000000000E-01  2.1229019939710E-01 -1.5963633985509E-01
    16  1.5000000000000E-01  2.4182242590192E-01 -1.8071809865909E-01
    17  1.6000000000000E-01  2.7287238540636E-01 -2.0256199906848E-01
    18  1.7000000000000E-01  3.0534288805521E-01 -2.2504235230170E-01
    19  1.8000000000000E-01  3.3913252453183E-01 -2.4802923914510E-01
    20  1.9000000000000E-01  3.7413601678500E-01 -2.7138914999218E-01
    21  2.0000000000000E-01  4.1024458032174E-01 -2.9498563908798E-01
    22  2.1000000000000E-01  4.4734629657481E-01 -3.1867998935786E-01
    23  2.2000000000000E-01  4.8532649382576E-01 -3.4233188417928E-01
    24  2.3000000000000E-01  5.2406813514504E-01 -3.6580008245898E-01
    25  2.4000000000000E-01  5.6345221179809E-01 -3.8894309340586E-01
    26  2.5000000000000E-01  6.0335814056284E-01 -4.1161984744086E-01
    27  2.6000000000000E-01  6.4366416340693E-01 -4.3369035975926E-01
    28  2.7000000000000E-01  6.8424774798432E-01 -4.5501638315638E-01
    29  2.8000000000000E-01  7.2498598742878E-01 -4.7546204684449E-01
    30  2.9000000000000E-01  7.6575599794757E-01 -4.9489447812489E-01
    31  3.0000000000000E-01  8.0643531274992E-01 -5.1318440393366E-01
    32  3.1000000000000E-01  8.4690227088406E-01 -5.3020672945100E-01
    33  3.2000000000000E-01  8.8703639960048E-01 -5.4584109115075E-01
    34  3.3000000000000E-01  9.2671878890952E-01 -5.5997238186672E-01
    35  3.4000000000000E-01  9.6583245705669E-01 -5.7249124566449E-01
    36  3.5000000000000E-01  1.0042627056992E+00 -5.8329454052941E-01
    37  3.6000000000000E-01  1.0418974636315E+00 -5.9228576711099E-01
    38  3.7000000000000E-01  1.0786276179765E+00 -5.9937546200055E-01
    39  3.8000000000000E-01  1.1143473318299E+00 -6.0448155425858E-01
    40  3.9000000000000E-01  1.1489543474195E+00 -6.0752968415114E-01
    41  4.0000000000000E-01  1.1823502739198E+00 -6.0845348329712E-01
    42  4.1000000000000E-01  1.2144408591371E+00 -6.0719481566927E-01
    43  4.2000000000000E-01  1.2451362443652E+00 -6.0370397912962E-01
    44  4.3000000000000E-01  1.2743512017865E+00 -5.9793986741234E-01
    45  4.4000000000000E-01  1.3020053538798E+00 -5.8987009269246E-01
    46  4.5000000000000E-01  1.3280233743734E+00 -5.7947106909611E-01
    47  4.6000000000000E-01  1.3523351703623E+00 -5.6672805771469E-01
    48  4.7000000000000E-01  1.3748760452908E+00 -5.5163517388113E-01
    49  4.8000000000000E-01  1.3955868425742E+00 -5.3419535764969E-01
    50  4.9000000000000E-01  1.4144140697148E+00 -5.1442030858981E-01
    51  5.0000000000000E-01  1.4313100028373E+00 -4.9233038615978E-01
    52  5.1000000000000E-01  1.4462327716411E+00 -4.6795447706515E-01
    53  5.2000000000000E-01  1.4591464248372E+00 -4.4132983113079E-01
    54  5.3000000000000E-01  1.4700209762009E+00 -4.1250186732222E-01
    55  5.4000000000000E-01  1.4788324314353E+00 -3.8152395164263E-01
    56  5.5000000000000E-01  1.4855627960998E+00 -3.4845714870578E-01
    57  5.6000000000000E-01  1.4902000649128E+00 -3.1336994884166E-01
    58  5.7000000000000E-01  1.4927381927921E+00 -2.7633797263276E-01
    59  5.8000000000000E-01  1.4931770480413E+00 -2.3744365480276E-01
    60  5.9000000000000E-01  1.4915223481403E+00 -1.9677590938879E-01
    61  6.0000000000000E-01  1.4877855786352E+00 -1.5442977812188E-01
    62  6.1000000000000E-01  1.4819838956638E+00 -1.1050606392035E-01
    63  6.2000000000000E-01  1.4741400126847E+00 -6.5110951367532E-02
    64  6.3000000000000E-01  1.4642820720107E+00 -1.8355615999740E-02
    65  6.4000000000000E-01  1.4524435017743E+00  2.9644175826173E-02
    66  6.5000000000000E-01  1.4386628589768E+00  7.8768474782210E-02
    67  6.6000000000000E-01  1.4229836592943E+00  1.2889356250715E-01
    68  6.7000000000000E-01  1.4054541943342E+00  1.7989237008609E-01
    69  6.8000000000000E-01  1.3861273370476E+00  2.3163489961250E-01
    70  6.9000000000000E-01  1.3650603360217E+00  2.8398864746535E-01
    71  7.0000000000000E-01  1.3423145993838E+00  3.3681902802889E-01
    72  7.1000000000000E-01  1.3179554690591E+00  3.8998979667898E-01
    73  7.2000000000000E-01  1.2920519861328E+00  4.4336347095625E-01
    74  7.3000000000000E-01  1.2646766480706E+00  4.9680174894185E-01
    75  7.4000000000000E-01  1.2359051585598E+00  5.5016592394433E-01
    76  7.5000000000000E-01  1.2058161707324E+00  6.0331729469550E-01
    77  7.6000000000000E-01  1.1744910245368E+00  6.5611757033727E-01
    78  7.7000000000000E-01  1.1420134790245E+00  7.0842926956036E-01
    79  7.8000000000000E-01  1.1084694403206E+00  7.6011611332731E-01
    80  7.9000000000000E-01  1.0739466860439E+00  8.1104341067671E-01
    81  8.0000000000000E-01  1.0385345869449E+00  8.6107843716147E-01
    82  8.1000000000000E-01  1.0023238265277E+00  9.1009080552137E-01