Ga    ONCVPSP-4.0.1  r_core=   2.37133   1.94652   1.99366
     31.0000     13.0000      230118    zatom,zion,pspd
     8       2   2     4   600     0    pspcod,pspxc,lmax,lloc,mmax,r2well
  5.99000000  5.00000000  0.00000000    rchrg fchrg qchrg
     2     2     2     0     0    nproj
     1     1           extension_switch
   0                         5.0330546180503E+00  5.1578352812921E-01
     1  0.0000000000000E+00  2.8031271748219E-11 -7.7297369893703E-11
     2  1.0000000000000E-02  2.6296156920489E-02 -6.8497672238729E-03
     3  2.0000000000000E-02  5.2594779062027E-02 -1.3726779337317E-02
     4  3.0000000000000E-02  7.8898205837509E-02 -2.0657950800194E-02
     5  4.0000000000000E-02  1.0520852601673E-01 -2.7669537824929E-02
     6  5.0000000000000E-02  1.3152745483075E-01 -3.4786815763053E-02
     7  6.0000000000000E-02  1.5785621396731E-01 -4.2033764249088E-02
     8  7.0000000000000E-02  1.8419541538815E-01 -4.9432762596344E-02
     9  8.0000000000000E-02  2.1054494987063E-01 -5.7004297861913E-02
    10  9.0000000000000E-02  2.3690388114169E-01 -6.4766687902566E-02
    11  1.0000000000000E-01  2.6327034643115E-01 -7.2735821630213E-02
    12  1.1000000000000E-01  2.8964146422407E-01 -8.0924918545730E-02
    13  1.2000000000000E-01  3.1601324993917E-01 -8.9344309484439E-02
    14  1.3000000000000E-01  3.4238054020229E-01 -9.8001240346354E-02
    15  1.4000000000000E-01  3.6873692632038E-01 -1.0689970041053E-01
    16  1.5000000000000E-01  3.9507469749439E-01 -1.1604027664708E-01
    17  1.6000000000000E-01  4.2138479423768E-01 -1.2542003524361E-01
    18  1.7000000000000E-01  4.4765677239151E-01 -1.3503243135690E-01
    19  1.8000000000000E-01  4.7387877805171E-01 -1.4486724788673E-01
    20  1.9000000000000E-01  5.0003753363987E-01 -1.5491056384861E-01
    21  2.0000000000000E-01  5.2611833527104E-01 -1.6514475269769E-01
    22  2.1000000000000E-01  5.5210506148636E-01 -1.7554851072817E-01
    23  2.2000000000000E-01  5.7798019333593E-01 -1.8609691544417E-01
    24  2.3000000000000E-01  6.0372484571314E-01 -1.9676151356937E-01
    25  2.4000000000000E-01  6.2931880975955E-01 -2.0751043813669E-01
    26  2.5000000000000E-01  6.5474060607716E-01 -2.1830855387730E-01
    27  2.6000000000000E-01  6.7996754840598E-01 -2.2911762991126E-01
    28  2.7000000000000E-01  7.0497581734715E-01 -2.3989653853302E-01
    29  2.8000000000000E-01  7.2974054363816E-01 -2.5060147868420E-01
    30  2.9000000000000E-01  7.5423590041621E-01 -2.6118622251578E-01
    31  3.0000000000000E-01  7.7843520383918E-01 -2.7160238326325E-01
    32  3.1000000000000E-01  8.0231102137251E-01 -2.8179970249299E-01
    33  3.2000000000000E-01  8.2583528699308E-01 -2.9172635462684E-01
    34  3.3000000000000E-01  8.4897942251071E-01 -3.0132926651656E-01
    35  3.4000000000000E-01  8.7171446416209E-01 -3.1055444972078E-01
    36  3.5000000000000E-01  8.9401119359357E-01 -3.1934734303587E-01
    37  3.6000000000000E-01  9.1584027231640E-01 -3.2765316274891E-01
    38  3.7000000000000E-01  9.3717237869233E-01 -3.3541725801704E-01
    39  3.8000000000000E-01  9.5797834648929E-01 -3.4258546873297E-01
    40  3.9000000000000E-01  9.7822930403453E-01 -3.4910448321172E-01
    41  4.0000000000000E-01  9.9789681298890E-01 -3.5492219302915E-01
    42  4.1000000000000E-01  1.0169530057686E+00 -3.5998804235892E-01
    43  4.2000000000000E-01  1.0353707206504E+00 -3.6425336918997E-01
    44  4.3000000000000E-01  1.0531236336154E+00 -3.6767173586288E-01
    45  4.4000000000000E-01  1.0701863860072E+00 -3.7019924643863E-01
    46  4.5000000000000E-01  1.0865347071164E+00 -3.7179484850795E-01
    47  4.6000000000000E-01  1.1021455308371E+00 -3.7242061716233E-01
    48  4.7000000000000E-01  1.1169971055872E+00 -3.7204201897797E-01
    49  4.8000000000000E-01  1.1310690967358E+00 -3.7062815401176E-01
    50  4.9000000000000E-01  1.1443426808335E+00 -3.6815197397029E-01
    51  5.0000000000000E-01  1.1568006310073E+00 -3.6459047489078E-01
    52  5.1000000000000E-01  1.1684273929440E+00 -3.5992486286269E-01
    53  5.2000000000000E-01  1.1792091509598E+00 -3.5414069152091E-01
    54  5.3000000000000E-01  1.1891338837245E+00 -3.4722797025369E-01
    55  5.4000000000000E-01  1.1981914092908E+00 -3.3918124228916E-01
    56  5.5000000000000E-01  1.2063734191555E+00 -3.2999963205219E-01
    57  5.6000000000000E-01  1.2136735011639E+00 -3.1968686141672E-01
    58  5.7000000000000E-01  1.2200871511523E+00 -3.0825123471468E-01
    59  5.8000000000000E-01  1.2256117733071E+00 -2.9570559260177E-01
    60  5.9000000000000E-01  1.2302466693065E+00 -2.8206723511793E-01
    61  6.0000000000000E-01  1.2339930163916E+00 -2.6735781451718E-01
    62  6.1000000000000E-01  1.2368538345996E+00 -2.5160319867390E-01
    63  6.2000000000000E-01  1.2388339434736E+00 -2.3483330609975E-01
    64  6.3000000000000E-01  1.2399399086403E+00 -2.1708191382547E-01
    65  6.4000000000000E-01  1.2401799787259E+00 -1.9838643961238E-01
    66  6.5000000000000E-01  1.2395640131518E+00 -1.7878770015876E-01
    67  6.6000000000000E-01  1.2381034014203E+00 -1.5832964715435E-01
    68  6.7000000000000E-01  1.2358109745645E+00 -1.3705908321025E-01
    69  6.8000000000000E-01  1.2327009094962E+00 -1.1502535985083E-01
    70  6.9000000000000E-01  1.2287886270370E+00 -9.2280059896848E-02
    71  7.0000000000000E-01  1.2240906844670E+00 -6.8876666694188E-02
    72  7.1000000000000E-01  1.2186246634641E+00 -4.4870222749110E-02
    73  7.2000000000000E-01  1.2124090543414E+00 -2.0316980417835E-02
    74  7.3000000000000E-01  1.2054631375185E+00  4.7259526350593E-03
    75  7.4000000000000E-01  1.1978068631788E+00  3.0200970449216E-02
    76  7.5000000000000E-01  1.1894607300803E+00  5.6050325467394E-02
    77  7.6000000000000E-01  1.1804456644891E+00  8.2216482133541E-02
    78  7.7000000000000E-01  1.1707829002040E+00  1.0864246462183E-01
    79  7.8000000000000E-01  1.1604938606266E+00  1.3527219596939E-01
    80  7.9000000000000E-01  1.1496000438168E+00  1.6205082594794E-01
    81  8.0000000000000E-01  1.1381229114437E+00  1.8892504509325E-01
    82  8.1000000000000E-01  1.1260837825115E+00  2.1584338241544E-01
    83  8.2000000000000E-01  1.1135037326979E+00  2.4275648443756E-01
    84  8.3000000000000E-01  1.1004035000963E+00  2.6961737335352E-01
    85  8.4000000000000E-01  1.0868033980995E+00  2.9638168225724E-01
    86  8.5000000000000E-01  1.0727232361009E+00  3.2300786557423E-01
    87  8.6000000000000E-01  1.0581822486276E+00  3.4945738302013E-01
    88  8.7000000000000E-01  1.0431990334460E+00  3.7569485561975E-01
    89  8.8000000000000E-01  1.0277914991058E+00  4.0168819254066E-01
    90  8.9000000000000E-01  1.0119768223122E+00  4.2740868772790E-01
    91  9.0000000000000E-01  9.9577141542835E-01  4.5283108556777E-01
    92  9.1000000000000E-01  9.7919090432965E-01  4.7793361505736E-01
    93  9.2000000000000E-01  9.6225011674050E-01  5.0269799221132E-01
    94  9.3000000000000E-01  9.4496308109664E-01  5.2710939069535E-01
    95  9.4000000000000E-01  9.2734303588574E-01  5.5115638093589E-01
    96  9.5000000000000E-01  9.0940244932916E-01  5.7483083821470E-01
    97  9.6000000000000E-01  8.9115304917824E-01  5.9812782051427E-01
    98  9.7000000000000E-01  8.7260586231074E-01  6.2104541713266E-01
    99  9.8000000000000E-01  8.5377126372663E-01  6.4358456933219E-01
   100  9.9000000000000E-01  8.3465903445977E-01  6.6574886452462E-01
   101  1.0000000000000E+00  8.1527842784158E-01  6.8754430572239E-01
   102  1.0100000000000E+00  7.9563824347734E-01  7.0897905820118E-01
   103  1.0200000000000E+00  7.7574690822467E-01  7.3006317551969E-01
   104  1.0300000000000E+00  7.5561256339772E-01  7.5080830722864E-01
   105  1.0400000000000E+00  7.3524315736085E-01  7.7122739076902E-01
   106  1.0500000000000E+00  7.1464654262179E-01  7.9133433020917E-01
   107  1.0600000000000E+00  6.9383057648755E-01  8.1114366460023E-01
   108  1.0700000000000E+00  6.7280322430695E-01  8.3067022883752E-01
   109  1.0800000000000E+00  6.5157266429144E-01  8.4992881000201E-01
   110  1.0900000000000E+00  6.3014739288225E-01  8.6893380221888E-01
   111  1.1000000000000E+00  6.0853632961585E-01  8.8769886310995E-01
   112  1.1100000000000E+00  5.8674892043246E-01  9.0623657493150E-01
   113  1.1200000000000E+00  5.6479523837344E-01  9.2455811348017E-01
   114  1.1300000000000E+00  5.4268608062294E-01  9.4267292781487E-01
   115  1.1400000000000E+00  5.2043306086760E-01  9.6058843378450E-01
   116  1.1500000000000E+00  4.9804869597473E-01  9.7830972426774E-01
   117  1.1600000000000E+00  4.7554648602441E-01  9.9583929892409E-01
   118  1.1700000000000E+00  4.5294098677450E-01  1.0131768161250E+00
   119  1.1800000000000E+00  4.3024787368818E-01  1.0303188695811E+00
   120  1.1900000000000E+00  4.0748399671294E-01  1.0472587920064E+00
   121  1.2000000000000E+00  3.8466742506521E-01  1.0639864879659E+00
   122  1.2100000000000E+00  3.6181748134784E-01  1.0804882978400E+00
   123  1.2200000000000E+00  3.3895476440620E-01  1.0967468946050E+00
   124  1.2300000000000E+00  3.1610116041295E-01  1.1127412148849E+00
   125  1.2400000000000E+00  2.9327984176153E-01  1.1284464254660E+00
   126  1.2500000000000E+00  2.7051525344146E-01  1.1438339261929E+00
   127  1.2600000000000E+00  2.4783308666687E-01  1.1588713898802E+00
   128  1.2700000000000E+00  2.2526023962980E-01  1.1735228395828E+00
   129  1.2800000000000E+00  2.0282476535240E-01  1.1877487632699E+00
   130  1.2900000000000E+00  1.8055580671678E-01  1.2015062656440E+00
   131  1.3000000000000E+00  1.5848351885592E-01  1.2147492565472E+00
   132  1.3100000000000E+00  1.3663897919337E-01  1.2274286750912E+00
   133  1.3200000000000E+00  1.1505408552374E-01  1.2394927483516E+00
   134  1.3300000000000E+00  9.3761442627506E-02  1.2508872831711E+00
   135  1.3400000000000E+00  7.2794238013274E-02  1.2615559893352E+00
   136  1.3500000000000E+00  5.2186107476153E-02  1.2714408321042E+00
   137  1.3600000000000E+00  3.1970991253334E-02  1.2804824118272E+00
   138  1.3700000000000E+00  1.2182981644363E-02  1.2886203681126E+00
   139  1.3800000000000E+00 -7.1438369547676E-03  1.2957938058002E+00
   140  1.3900000000000E+00 -2.5975554579823E-02  1.3019417397671E+00
   141  1.4000000000000E+00 -4.4278607696519E-02  1.3070035554052E+00
   142  1.4100000000000E+00 -6.2019955516016E-02  1.3109194814405E+00
   143  1.4200000000000E+00 -7.9167259422360E-02  1.3136310716144E+00
   144  1.4300000000000E+00 -9.5689064262527E-02  1.3150816916286E+00
   145  1.4400000000000E+00 -1.1155498021455E-01  1.3152170076545E+00
   146  1.4500000000000E+00 -1.2673586392336E-01  1.3139854726435E+00
   147  1.4600000000000E+00 -1.4120399757780E-01  1.3113388066295E+00
   148  1.4700000000000E+00 -1.5493326459567E-01  1.3072324672044E+00
   149  1.4800000000000E+00 -1.6789932058717E-01  1.3016261063616E+00
   150  1.4900000000000E+00 -1.8007975828053E-01  1.2944840099468E+00
   151  1.5000000000000E+00 -1.9145426511695E-01  1.2857755160303E+00
   152  1.5100000000000E+00 -2.0200477225533E-01  1.2754754086147E+00
   153  1.5200000000000E+00 -2.1171559377019E-01  1.2635642832229E+00
   154  1.5300000000000E+00 -2.2057355487900E-01  1.2500288810681E+00
   155  1.5400000000000E+00 -2.2856810809630E-01  1.2348623886903E+00
   156  1.5500000000000E+00 -2.3569143628314E-01  1.2180647001527E+00
   157  1.5600000000000E+00 -2.4193854163873E-01  1.1996426391240E+00
   158  1.5700000000000E+00 -2.4730731976823E-01  1.1796101384265E+00
   159  1.5800000000000E+00 -2.5179861805456E-01  1.1579883749063E+00
   160  1.5900000000000E+00 -2.5541627766239E-01  1.1348058577750E+00
   161  1.6000000000000E+00 -2.5816715860957E-01  1.1100984688831E+00
   162  1.6100000000000E+00 -2.6006114745265E-01  1.0839094537124E+00
   163  1.6200000000000E+00 -2.6111114724940E-01  1.0562893622096E+00
   164  1.6300000000000E+00 -2.6133304958092E-01  1.0272959389332E+00
   165  1.6400000000000E+00 -2.6074568853873E-01  9.9699396233998E-01
   166  1.6500000000000E+00 -2.5937077670622E-01  9.6545503339590E-01
   167  1.6600000000000E+00 -2.5723282328940E-01  9.3275731406107E-01
   168  1.6700000000000E+00 -2.5435903467731E-01  8.9898521655714E-01
   169  1.6800000000000E+00 -2.5077919783668E-01  8.6422904468590E-01
   170  1.6900000000000E+00 -2.4652554706869E-01  8.2858458882016E-01
   171  1.7000000000000E+00 -2.4163261477509E-01  7.9215267653250E-01
   172  1.7100000000000E+00 -2.3613706699793E-01  7.5503868116115E-01
   173  1.7200000000000E+00 -2.3007752460899E-01  7.1735199093261E-01
   174  1.7300000000000E+00 -2.2349437113165E-01  6.7920544156506E-01
   175  1.7400000000000E+00 -2.1642954827868E-01  6.4071471556248E-01
   176  1.7500000000000E+00 -2.0892634038321E-01  6.0199771167606E-01
   177  1.7600000000000E+00 -2.0102914898622E-01  5.6317388825233E-01
   178  1.7700000000000E+00 -1.9278325892202E-01  5.2436358440704E-01
   179  1.7800000000000E+00 -1.8423459731211E-01  4.8568732315717E-01
   180  1.7900000000000E+00 -1.7542948693750E-01  4.4726510080868E-01
   181  1.8000000000000E+00 -1.6641439550960E-01  4.0921566703505E-01
   182  1.8100000000000E+00 -1.5723568239915E-01  3.7165580018764E-01
   183  1.8200000000000E+00 -1.4793934441148E-01  3.3469958245523E-01
   184  1.8300000000000E+00 -1.3857076218043E-01  2.9845767929844E-01
   185  1.8400000000000E+00 -1.2917444879119E-01  2.6303662786626E-01
   186  1.8500000000000E+00 -1.1979380429683E-01  2.2853815274104E-01
   187  1.8600000000000E+00 -1.1047086569502E-01  1.9505843220067E-01
   188  1.8700000000000E+00 -1.0124613638593E-01  1.6268788216240E-01
   189  1.8800000000000E+00 -9.2158503003633E-02  1.3151147015072E-01
   190  1.8900000000000E+00 -8.3245119040480E-02  1.0160871299116E-01
   191  1.9000000000000E+00 -7.4541218274745E-02  7.3053136567329E-02
   192  1.9100000000000E+00 -6.6079948526482E-02  4.5911832450167E-02
   193  1.9200000000000E+00 -5.7892216340161E-02  2.0245039504714E-02
   194  1.9300000000000E+00 -5.0006545558959E-02 -3.8942327986859E-03
   195  1.9400000000000E+00 -4.2448950764418E-02 -2.6460536707797E-02
   196  1.9500000000000E+00 -3.5242826451168E-02 -4.7416271770004E-02
   197  1.9600000000000E+00 -2.8408852726908E-02 -6.6731921426241E-02
   198  1.9700000000000E+00 -2.1964918217534E-02 -8.4386238697826E-02
   199  1.9800000000000E+00 -1.5926060742150E-02 -1.0036637938651E-01
   200  1.9900000000000E+00 -1.0304426199499E-02 -1.1466798157130E-01
   201  2.0000000000000E+00 -5.1092459914238E-03 -1.2729519052692E-01
   202  2.0100000000000E+00 -3.4683317276180E-04 -1.3826062858955E-01
   203  2.0200000000000E+00  3.9794026041117E-03 -1.4758530985137E-01
   204  2.0300000000000E+00  7.8689214134038E-03 -1.5529849995162E-01
   205  2.0400000000000E+00  1.1324000840056E-02 -1.6143752160769E-01
   206  2.0500000000000E+00  1.4349665547313E-02 -1.6604750691614E-01
   207  2.0600000000000E+00  1.6953599067517E-02 -1.6918109779485E-01
   208  2.0700000000000E+00  1.9146038391854E-02 -1.7089809633493E-01
   209  2.0800000000000E+00  2.0939652046380E-02 -1.7126506715706E-01
   210  2.0900000000000E+00  2.2349402459165E-02 -1.7035489421044E-01
   211  2.1000000000000E+00  2.3392393535719E-02 -1.6824629477971E-01
   212  2.1100000000000E+00  2.4087704458742E-02 -1.6502329375383E-01
   213  2.1200000000000E+00  2.4456210829647E-02 -1.6077466150581E-01
   214  2.1300000000000E+00  2.4520394359045E-02 -1.5559331899324E-01
   215  2.1400000000000E+00  2.4304142391702E-02 -1.4957571391676E-01
   216  2.1500000000000E+00  2.3832538627859E-02 -1.4282117199496E-01
   217  2.1600000000000E+00  2.3131646460013E-02 -1.3543122757968E-01
   218  2.1700000000000E+00  2.2228286405184E-02 -1.2750893801100E-01
   219  2.1800000000000E+00  2.1149809151497E-02 -1.1915818622254E-01
   220  2.1900000000000E+00  1.9923865771484E-02 -1.1048297620334E-01
   221  2.2000000000000E+00  1.8578176675769E-02 -1.0158672598154E-01
   222  2.2100000000000E+00  1.7140304539201E-02 -9.2571573052616E-02
   223  2.2200000000000E+00  1.5637407822137E-02 -8.3537626950838E-02
   224  2.2300000000000E+00  1.4096031178362E-02 -7.4582327045859E-02
   225  2.2400000000000E+00  1.2541942132881E-02 -6.5799932157694E-02
   226  2.2500000000000E+00  1.0999772964807E-02 -5.7280466028371E-02
   227  2.2600000000000E+00  9.4905317413015E-03 -4.9102690951257E-02
   228  2.2700000000000E+00  8.0313635010508E-03 -4.1333393543075E-02
   229  2.2800000000000E+00  6.6439067858098E-03 -3.4050774144087E-02
   230  2.2900000000000E+00  5.3490737110183E-03 -2.7329770305506E-02
   231  2.3000000000000E+00  4.1650565593669E-03 -2.1236431372060E-02
   232  2.3100000000000E+00  3.1078722344036E-03 -1.5829413133802E-02
   233  2.3200000000000E+00  2.1910674429737E-03 -1.1159122450237E-02
   234  2.3300000000000E+00  1.4256780711389E-03 -7.2677356059455E-03
   235  2.3400000000000E+00  8.2006689426671E-04 -4.1885803120881E-03
   236  2.3500000000000E+00  3.7692118231934E-04 -1.9307217301063E-03
   237  2.3600000000000E+00  1.0981947742573E-04 -5.6490994068448E-04
   238  2.3700000000000E+00  5.1380293080173E-06 -2.6666584484081E-05
   239  2.3800000000000E+00 -6.4971132771859E-06  3.3578869584737E-05
   240  2.3900000000000E+00  2.2422468221842E-06 -1.1547706641049E-05
   241  2.40 -0.  0.
   242  2.41 -0.  0.
   243  2.42  0. -0.
   244  2.43  0.  0.
   245  2.44  0.  0.
   246  2.45  0.  0.
   247  2.46  0.  0.
   248  2.47  0.  0.
   249  2.48  0.  0.
   250  2.49  0.  0.
   251  2.50  0.  0.
   252  2.51  0.  0.
   253  2.52  0.  0.
   254  2.53  0.  0.
   255  2.54  0.  0.
   256  2.55  0.  0.
   257  2.56  0.  0.
   258  2.57  0.  0.
   259  2.58  0.  0.
   260  2.59  0.  0.
   261  2.60  0.  0.
   262  2.61  0.  0.
   263  2.62  0.  0.
   264  2.63  0.  0.
   265  2.64  0.  0.
   266  2.65  0.  0.
   267  2.66  0.  0.
   268  2.67  0.  0.
   269  2.68  0.  0.
   270  2.69  0.  0.
   271  2.70  0.  0.
   272  2.71  0.  0.
   273  2.72  0.  0.
   274  2.73  0.  0.
   275  2.74  0.  0.
   276  2.75  0.  0.
   277  2.76  0.  0.
   278  2.77  0.  0.
   279  2.78  0.  0.
   280  2.79  0.  0.
   281  2.80  0.  0.
   282  2.81  0.  0.
   283  2.82  0.  0.
   284  2.83  0.  0.
   285  2.84  0.  0.
   286  2.85  0.  0.
   287  2.86  0.  0.
   288  2.87  0.  0.
   289  2.88  0.  0.
   290  2.89  0.  0.
   291  2.90  0.  0.
   292  2.91  0.  0.
   293  2.92  0.  0.
   294  2.93  0.  0.
   295  2.94  0.  0.
   296  2.95  0.  0.
   297  2.96  0.  0.
   298  2.97  0.  0.
   299  2.98  0.  0.
   300  2.99  0.  0.
   301  3.00  0.  0.
   302  3.01  0.  0.
   303  3.02  0.  0.
   304  3.03  0.  0.
   305  3.04  0.  0.
   306  3.05  0.  0.
   307  3.06  0.  0.
   308  3.07  0.  0.
   309  3.08  0.  0.
   310  3.09  0.  0.
   311  3.10  0.  0.
   312  3.11  0.  0.
   313  3.12  0.  0.
   314  3.13  0.  0.
   315  3.14  0.  0.
   316  3.15  0.  0.
   317  3.16  0.  0.
   318  3.17  0.  0.
   319  3.18  0.  0.
   320  3.19  0.  0.
   321  3.20  0.  0.
   322  3.21  0.  0.
   323  3.22  0.  0.
   324  3.23  0.  0.
   325  3.24  0.  0.
   326  3.25  0.  0.
   327  3.26  0.  0.
   328  3.27  0.  0.
   329  3.28  0.  0.
   330  3.29  0.  0.
   331  3.30  0.  0.
   332  3.31  0.  0.
   333  3.32  0.  0.
   334  3.33  0.  0.
   335  3.34  0.  0.
   336  3.35  0.  0.
   337  3.36  0.  0.
   338  3.37  0.  0.
   339  3.38  0.  0.
   340  3.39  0.  0.
   341  3.40  0.  0.
   342  3.41  0.  0.
   343  3.42  0.  0.
   344  3.43  0.  0.
   345  3.44  0.  0.
   346  3.45  0.  0.
   347  3.46  0.  0.
   348  3.47  0.  0.
   349  3.48  0.  0.
   350  3.49  0.  0.
   351  3.50  0.  0.
   352  3.51  0.  0.
   353  3.52  0.  0.
   354  3.53  0.  0.
   355  3.54  0.  0.
   356  3.55  0.  0.
   357  3.56  0.  0.
   358  3.57  0.  0.
   359  3.58  0.  0.
   360  3.59  0.  0.
   361  3.60  0.  0.
   362  3.61  0.  0.
   363  3.62  0.  0.
   364  3.63  0.  0.
   365  3.64  0.  0.
   366  3.65  0.  0.
   367  3.66  0.  0.
   368  3.67  0.  0.
   369  3.68  0.  0.
   370  3.69  0.  0.
   371  3.70  0.  0.
   372  3.71  0.  0.
   373  3.72  0.  0.
   374  3.73  0.  0.
   375  3.74  0.  0.
   376  3.75  0.  0.
   377  3.76  0.  0.
   378  3.77  0.  0.
   379  3.78  0.  0.
   380  3.79  0.  0.
   381  3.80  0.  0.
   382  3.81  0.  0.
   383  3.82  0.  0.
   384  3.83  0.  0.
   385  3.84  0.  0.
   386  3.85  0.  0.
   387  3.86  0.  0.
   388  3.87  0.  0.
   389  3.88  0.  0.
   390  3.89  0.  0.
   391  3.90  0.  0.
   392  3.91  0.  0.
   393  3.92  0.  0.
   394  3.93  0.  0.
   395  3.94  0.  0.
   396  3.95  0.  0.
   397  3.96  0.  0.
   398  3.97  0.  0.
   399  3.98  0.  0.
   400  3.99  0.  0.
   401  4.00  0.  0.
   402  4.01  0.  0.
   403  4.02  0.  0.
   404  4.03  0.  0.
   405  4.04  0.  0.
   406  4.05  0.  0.
   407  4.06  0.  0.
   408  4.07  0.  0.
   409  4.08  0.  0.
   410  4.09  0.  0.
   411  4.10  0.  0.
   412  4.11  0.  0.
   413  4.12  0.  0.
   414  4.13  0.  0.
   415  4.14  0.  0.
   416  4.15  0.  0.
   417  4.16  0.  0.
   418  4.17  0.  0.
   419  4.18  0.  0.
   420  4.19  0.  0.
   421  4.20  0.  0.
   422  4.21  0.  0.
   423  4.22  0.  0.
   424  4.23  0.  0.
   425  4.24  0.  0.
   426  4.25  0.  0.
   427  4.26  0.  0.
   428  4.27  0.  0.
   429  4.28  0.  0.
   430  4.29  0.  0.
   431  4.30  0.  0.
   432  4.31  0.  0.
   433  4.32  0.  0.
   434  4.33  0.  0.
   435  4.34  0.  0.
   436  4.35  0.  0.
   437  4.36  0.  0.
   438  4.37  0.  0.
   439  4.38  0.  0.
   440  4.39  0.  0.
   441  4.40  0.  0.
   442  4.41  0.  0.
   443  4.42  0.  0.
   444  4.43  0.  0.
   445  4.44  0.  0.
   446  4.45  0.  0.
   447  4.46  0.  0.
   448  4.47  0.  0.
   449  4.48  0.  0.
   450  4.49  0.  0.
   451  4.50  0.  0.
   452  4.51  0.  0.
   453  4.52  0.  0.
   454  4.53  0.  0.
   455  4.54  0.  0.
   456  4.55  0.  0.
   457  4.56  0.  0.
   458  4.57  0.  0.
   459  4.58  0.  0.
   460  4.59  0.  0.
   461  4.60  0.  0.
   462  4.61  0.  0.
   463  4.62  0.  0.
   464  4.63  0.  0.
   465  4.64  0.  0.
   466  4.65  0.  0.
   467  4.66  0.  0.
   468  4.67  0.  0.
   469  4.68  0.  0.
   470  4.69  0.  0.
   471  4.70  0.  0.
   472  4.71  0.  0.
   473  4.72  0.  0.
   474  4.73  0.  0.
   475  4.74  0.  0.
   476  4.75  0.  0.
   477  4.76  0.  0.
   478  4.77  0.  0.
   479  4.78  0.  0.
   480  4.79  0.  0.
   481  4.80  0.  0.
   482  4.81  0.  0.
   483  4.82  0.  0.
   484  4.83  0.  0.
   485  4.84  0.  0.
   486  4.85  0.  0.
   487  4.86  0.  0.
   488  4.87  0.  0.
   489  4.88  0.  0.
   490  4.89  0.  0.
   491  4.90  0.  0.
   492  4.91  0.  0.
   493  4.92  0.  0.
   494  4.93  0.  0.
   495  4.94  0.  0.
   496  4.95  0.  0.
   497  4.96  0.  0.
   498  4.97  0.  0.
   499  4.98  0.  0.
   500  4.99  0.  0.
   501  5.00  0.  0.
   502  5.01  0.  0.
   503  5.02  0.  0.
   504  5.03  0.  0.
   505  5.04  0.  0.
   506  5.05  0.  0.
   507  5.06  0.  0.
   508  5.07  0.  0.
   509  5.08  0.  0.
   510  5.09  0.  0.
   511  5.10  0.  0.
   512  5.11  0.  0.
   513  5.12  0.  0.
   514  5.13  0.  0.
   515  5.14  0.  0.
   516  5.15  0.  0.
   517  5.16  0.  0.
   518  5.17  0.  0.
   519  5.18  0.  0.
   520  5.19  0.  0.
   521  5.20  0.  0.
   522  5.21  0.  0.
   523  5.22  0.  0.
   524  5.23  0.  0.
   525  5.24  0.  0.
   526  5.25  0.  0.
   527  5.26  0.  0.
   528  5.27  0.  0.
   529  5.28  0.  0.
   530  5.29  0.  0.
   531  5.30  0.  0.
   532  5.31  0.  0.
   533  5.32  0.  0.
   534  5.33  0.  0.
   535  5.34  0.  0.
   536  5.35  0.  0.
   537  5.36  0.  0.
   538  5.37  0.  0.
   539  5.38  0.  0.
   540  5.39  0.  0.
   541  5.40  0.  0.
   542  5.41  0.  0.
   543  5.42  0.  0.
   544  5.43  0.  0.
   545  5.44  0.  0.
   546  5.45  0.  0.
   547  5.46  0.  0.
   548  5.47  0.  0.
   549  5.48  0.  0.
   550  5.49  0.  0.
   551  5.50  0.  0.
   552  5.51  0.  0.
   553  5.52  0.  0.
   554  5.53  0.  0.
   555  5.54  0.  0.
   556  5.55  0.  0.
   557  5.56  0.  0.
   558  5.57  0.  0.
   559  5.58  0.  0.
   560  5.59  0.  0.
   561  5.60  0.  0.
   562  5.61  0.  0.
   563  5.62  0.  0.
   564  5.63  0.  0.
   565  5.64  0.  0.
   566  5.65  0.  0.
   567  5.66  0.  0.
   568  5.67  0.  0.
   569  5.68  0.  0.
   570  5.69  0.  0.
   571  5.70  0.  0.
   572  5.71  0.  0.
   573  5.72  0.  0.
   574  5.73  0.  0.
   575  5.74  0.  0.
   576  5.75  0.  0.
   577  5.76  0.  0.
   578  5.77  0.  0.
   579  5.78  0.  0.
   580  5.79  0.  0.
   581  5.80  0.  0.
   582  5.81  0.  0.
   583  5.82  0.  0.
   584  5.83  0.  0.
   585  5.84  0.  0.
   586  5.85  0.  0.
   587  5.86  0.  0.
   588  5.87  0.  0.
   589  5.88  0.  0.
   590  5.89  0.  0.
   591  5.90  0.  0.
   592  5.91  0.  0.
   593  5.92  0.  0.
   594  5.93  0.  0.
   595  5.94  0.  0.
   596  5.95  0.  0.
   597  5.96  0.  0.
   598  5.97  0.  0.
   599  5.98  0.  0.
   600  5.99  0.  0.
   1                         3.5122570196412E+00  5.3448583363305E-01
     1  0.0000000000000E+00 -2.7592745796556E-10  4.3380850300867E-10
     2  1.0000000000000E-02 -2.3083413286789E-04  6.9405443260322E-04
     3  2.0000000000000E-02 -9.2036446165049E-04  2.7717681087887E-03
     4  3.0000000000000E-02 -2.0596951007975E-03  6.2198226088116E-03
     5  4.0000000000000E-02 -3.6340671733607E-03  1.1016121817874E-02
     6  5.0000000000000E-02 -5.6229596945715E-03  1.7129942992003E-02
     7  6.0000000000000E-02 -8.0002297834414E-03  2.4522146634744E-02
     8  7.0000000000000E-02 -1.0734291186946E-02  3.3145443585422E-02
     9  8.0000000000000E-02 -1.3788329825425E-02  4.2944717285906E-02
    10  9.0000000000000E-02 -1.7120554802322E-02  5.3857398776035E-02
    11  1.0000000000000E-01 -2.0684483068548E-02  6.5813891571661E-02
    12  1.1000000000000E-01 -2.4429255693431E-02  7.8738043206810E-02
    13  1.2000000000000E-01 -2.8299983472577E-02  9.2547659876076E-02
    14  1.3000000000000E-01 -3.2238119399430E-02  1.0715506029752E-01
    15  1.4000000000000E-01 -3.6181855343874E-02  1.2246766463310E-01
    16  1.5000000000000E-01 -4.0066540118925E-02  1.3838861405500E-01
    17  1.6000000000000E-01 -4.3825115976912E-02  1.5481741633395E-01
    18  1.7000000000000E-01 -4.7388570460514E-02  1.7165061265235E-01
    19  1.8000000000000E-01 -5.0686400442372E-02  1.8878246071063E-01
    20  1.9000000000000E-01 -5.3647085120516E-02  2.0610562910208E-01
    21  2.0000000000000E-01 -5.6198564695813E-02  2.2351189787934E-01
    22  2.1000000000000E-01 -5.8268721442343E-02  2.4089286022525E-01
    23  2.2000000000000E-01 -5.9785859891964E-02  2.5814062017161E-01
    24  2.3000000000000E-01 -6.0679182890161E-02  2.7514848138160E-01
    25  2.4000000000000E-01 -6.0879260341033E-02  2.9181162212370E-01
    26  2.5000000000000E-01 -6.0318487544387E-02  3.0802775171606E-01
    27  2.6000000000000E-01 -5.8931530136430E-02  3.2369774390932E-01
    28  2.7000000000000E-01 -5.6655752776399E-02  3.3872624289999E-01
    29  2.8000000000000E-01 -5.3431628873491E-02  3.5302223792477E-01
    30  2.9000000000000E-01 -4.9203128820015E-02  3.6649960267527E-01
    31  3.0000000000000E-01 -4.3918084386393E-02  3.7907759608996E-01
    32  3.1000000000000E-01 -3.7528527139601E-02  3.9068132142365E-01
    33  3.2000000000000E-01 -2.9990998966996E-02  4.0124214085987E-01
    34  3.3000000000000E-01 -2.1266833020332E-02  4.1069804331618E-01
    35  3.4000000000000E-01 -1.1322403637856E-02  4.1899396349231E-01
    36  3.5000000000000E-01 -1.2934405371145E-04  4.2608205062306E-01
    37  3.6000000000000E-01  1.2335269038928E-02  4.3192188581771E-01
    38  3.7000000000000E-01  2.6088764743645E-02  4.3648064729262E-01
    39  3.8000000000000E-01  4.1142761445860E-02  4.3973322322858E-01
    40  3.9000000000000E-01  5.7503084676192E-02  4.4166227240673E-01
    41  4.0000000000000E-01  7.5169719242801E-02  4.4225823319218E-01
    42  4.1000000000000E-01  9.4136795270531E-02  4.4151928183920E-01
    43  4.2000000000000E-01  1.1439260753924E-01  4.3945124148264E-01
    44  4.3000000000000E-01  1.3591966727778E-01  4.3606744355393E-01
    45  4.4000000000000E-01  1.5869478534589E-01  4.3138854371250E-01
    46  4.5000000000000E-01  1.8268918552487E-01  4.2544229471308E-01
    47  4.6000000000000E-01  2.0786864644238E-01  4.1826327893212E-01
    48  4.7000000000000E-01  2.3419367047684E-01  4.0989260355072E-01
    49  4.8000000000000E-01  2.6161967782566E-01  4.0037756163452E-01
    50  4.9000000000000E-01  2.9009722377926E-01  3.8977126256109E-01
    51  5.0000000000000E-01  3.1957223712043E-01  3.7813223542059E-01
    52  5.1000000000000E-01  3.4998627746788E-01  3.6552400915545E-01
    53  5.2000000000000E-01  3.8127680930268E-01  3.5201467330729E-01
    54  5.3000000000000E-01  4.1337749035943E-01  3.3767642330488E-01
    55  5.4000000000000E-01  4.4621847202805E-01  3.2258509425483E-01
    56  5.5000000000000E-01  4.7972670939929E-01  3.0681968718715E-01
    57  5.6000000000000E-01  5.1382627859571E-01  2.9046189166115E-01
    58  5.7000000000000E-01  5.4843869906015E-01  2.7359560855488E-01
    59  5.8000000000000E-01  5.8348325852485E-01  2.5630647674347E-01
    60  5.9000000000000E-01  6.1887733845565E-01  2.3868140722123E-01
    61  6.0000000000000E-01  6.5453673785556E-01  2.2080812803977E-01
    62  6.1000000000000E-01  6.9037599342029E-01  2.0277474322261E-01
    63  6.2000000000000E-01  7.2630869416223E-01  1.8466930857830E-01
    64  6.3000000000000E-01  7.6224778875892E-01  1.6657942707064E-01
    65  6.4000000000000E-01  7.9810588403433E-01  1.4859186612025E-01
    66  6.5000000000000E-01  8.3379553314492E-01  1.3079219890907E-01
    67  6.6000000000000E-01  8.6922951221624E-01  1.1326447144116E-01
    68  6.7000000000000E-01  9.0432108435654E-01  9.6090896783955E-02
    69  6.8000000000000E-01  9.3898425016050E-01  7.9351577575997E-02
    70  6.9000000000000E-01  9.7313398400615E-01  6.3124257545220E-02
    71  7.0000000000000E-01  1.0066864556398E+00  4.7484102438187E-02
    72  7.1000000000000E-01  1.0395592367339E+00  3.2503510420087E-02
    73  7.2000000000000E-01  1.0716714922917E+00  1.8251951670658E-02