As    ONCVPSP-4.0.1  r_core=   2.11085   1.80680   2.11085
     33.0000     15.0000      230118    zatom,zion,pspd
     8       2   2     4   600     0    pspcod,pspxc,lmax,lloc,mmax,r2well
  5.99000000  5.00000000  0.00000000    rchrg fchrg qchrg
     2     2     2     0     0    nproj
     1     1           extension_switch
   0                         6.5280160383519E+00  6.3383761368285E-01
     1  0.0000000000000E+00  4.3488324052987E-11 -1.3475588700462E-10
     2  1.0000000000000E-02  3.0419081811647E-02 -1.1651058483908E-02
     3  2.0000000000000E-02  6.0836476045375E-02 -2.3321191240003E-02
     4  3.0000000000000E-02  9.1250350739014E-02 -3.5029082241200E-02
     5  4.0000000000000E-02  1.2165858644860E-01 -4.6792638620173E-02
     6  5.0000000000000E-02  1.5205863571313E-01 -5.8628611610540E-02
     7  6.0000000000000E-02  1.8244738633515E-01 -7.0552228625421E-02
     8  7.0000000000000E-02  2.1282102969753E-01 -8.2576840026465E-02
     9  8.0000000000000E-02  2.4317493529371E-01 -9.4713584001689E-02
    10  9.0000000000000E-02  2.7350353259465E-01 -1.0697107280438E-01
    11  1.0000000000000E-01  3.0380020131265E-01 -1.1935510340927E-01
    12  1.1000000000000E-01  3.3405717104984E-01 -1.3186839541827E-01
    13  1.2000000000000E-01  3.6426543123802E-01 -1.4451035879774E-01
    14  1.3000000000000E-01  3.9441465218816E-01 -1.5727689375565E-01
    15  1.4000000000000E-01  4.2449311797200E-01 -1.7016022477161E-01
    16  1.5000000000000E-01  4.5448767175645E-01 -1.8314877047930E-01
    17  1.6000000000000E-01  4.8438367410476E-01 -1.9622705077104E-01
    18  1.7000000000000E-01  5.1416497464662E-01 -2.0937563215256E-01
    19  1.8000000000000E-01  5.4381389740518E-01 -2.2257111202395E-01
    20  1.9000000000000E-01  5.7331123995181E-01 -2.3578614220479E-01
    21  2.0000000000000E-01  6.0263628644136E-01 -2.4898949166060E-01
    22  2.1000000000000E-01  6.3176683446214E-01 -2.6214614802632E-01
    23  2.2000000000000E-01  6.6067923551743E-01 -2.7521745716581E-01
    24  2.3000000000000E-01  6.8934844883937E-01 -2.8816129965535E-01
    25  2.4000000000000E-01  7.1774810812362E-01 -3.0093230273899E-01
    26  2.5000000000000E-01  7.4585060066374E-01 -3.1348208597655E-01
    27  2.6000000000000E-01  7.7362715826065E-01 -3.2575953849366E-01
    28  2.7000000000000E-01  8.0104795918379E-01 -3.3771112545222E-01
    29  2.8000000000000E-01  8.2808224036918E-01 -3.4928122108895E-01
    30  2.9000000000000E-01  8.5469841895527E-01 -3.6041246542495E-01
    31  3.0000000000000E-01  8.8086422218122E-01 -3.7104614152983E-01
    32  3.1000000000000E-01  9.0654682460550E-01 -3.8112257003422E-01
    33  3.2000000000000E-01  9.3171299154440E-01 -3.9058151742485E-01
    34  3.3000000000000E-01  9.5632922758270E-01 -3.9936261452908E-01
    35  3.4000000000000E-01  9.8036192897120E-01 -4.0740578150140E-01
    36  3.5000000000000E-01  1.0037775386988E+00 -4.1465165556489E-01
    37  3.6000000000000E-01  1.0265427030114E+00 -4.2104201773530E-01
    38  3.7000000000000E-01  1.0486244281452E+00 -4.2652021476565E-01
    39  3.8000000000000E-01  1.0699902360466E+00 -4.3103157259436E-01
    40  3.9000000000000E-01  1.0906083178723E+00 -4.3452379765977E-01
    41  4.0000000000000E-01  1.1104476840847E+00 -4.3694736255804E-01
    42  4.1000000000000E-01  1.1294783100033E+00 -4.3825587266809E-01
    43  4.2000000000000E-01  1.1476712757163E+00 -4.3840641054598E-01
    44  4.3000000000000E-01  1.1649988993177E+00 -4.3735985509992E-01
    45  4.4000000000000E-01  1.1814348625012E+00 -4.3508117279372E-01
    46  4.5000000000000E-01  1.1969543276198E+00 -4.3153967838957E-01
    47  4.6000000000000E-01  1.2115340454020E+00 -4.2670926302706E-01
    48  4.7000000000000E-01  1.2251524526067E+00 -4.2056858774275E-01
    49  4.8000000000000E-01  1.2377897589970E+00 -4.1310124085957E-01
    50  4.9000000000000E-01  1.2494280231125E+00 -4.0429585801568E-01
    51  5.0000000000000E-01  1.2600512164283E+00 -3.9414620395369E-01
    52  5.1000000000000E-01  1.2696452755955E+00 -3.8265121555179E-01
    53  5.2000000000000E-01  1.2781981425729E+00 -3.6981500594294E-01
    54  5.3000000000000E-01  1.2856997925682E+00 -3.5564682993526E-01
    55  5.4000000000000E-01  1.2921422498223E+00 -3.4016101131035E-01
    56  5.5000000000000E-01  1.2975195913798E+00 -3.2337683293610E-01
    57  5.6000000000000E-01  1.3018279391002E+00 -3.0531839097931E-01
    58  5.7000000000000E-01  1.3050654402673E+00 -2.8601441484114E-01
    59  5.8000000000000E-01  1.3072322372581E+00 -2.6549805475983E-01
    60  5.9000000000000E-01  1.3083304268288E+00 -2.4380663932708E-01
    61  6.0000000000000E-01  1.3083640096651E+00 -2.2098140544551E-01
    62  6.1000000000000E-01  1.3073388309280E+00 -1.9706720350969E-01
    63  6.2000000000000E-01  1.3052625125995E+00 -1.7211218082185E-01
    64  6.3000000000000E-01  1.3021443785046E+00 -1.4616744645175E-01
    65  6.4000000000000E-01  1.2979953729357E+00 -1.1928672091681E-01
    66  6.5000000000000E-01  1.2928279738620E+00 -9.1525974192284E-02
    67  6.6000000000000E-01  1.2866561017350E+00 -6.2943055658890E-02
    68  6.7000000000000E-01  1.2794950249358E+00 -3.3597319658047E-02
    69  6.8000000000000E-01  1.2713612629201E+00 -3.5492503498890E-03
    70  6.9000000000000E-01  1.2622724881232E+00  2.7139910442633E-02
    71  7.0000000000000E-01  1.2522474276821E+00  5.8408528769343E-02
    72  7.1000000000000E-01  1.2413057660109E+00  9.0194933920263E-02
    73  7.2000000000000E-01  1.2294680492410E+00  1.2243776019944E-01
    74  7.3000000000000E-01  1.2167555924934E+00  1.5507627183725E-01
    75  7.4000000000000E-01  1.2031903909056E+00  1.8805066796520E-01
    76  7.5000000000000E-01  1.1887950352725E+00  2.2130236480047E-01
    77  7.6000000000000E-01  1.1735926330934E+00  2.5477425244125E-01
    78  7.7000000000000E-01  1.1576067357404E+00  2.8841092395526E-01
    79  7.8000000000000E-01  1.1408612723774E+00  3.2215887474967E-01
    80  7.9000000000000E-01  1.1233804911668E+00  3.5596667053920E-01
    81  8.0000000000000E-01  1.1051889082051E+00  3.8978508257556E-01
    82  8.1000000000000E-01  1.0863112645238E+00  4.2356718916430E-01
    83  8.2000000000000E-01  1.0667724913853E+00  4.5726844286842E-01
    84  8.3000000000000E-01  1.0465976839950E+00  4.9084670318086E-01
    85  8.4000000000000E-01  1.0258120836398E+00  5.2426223483398E-01
    86  8.5000000000000E-01  1.0044410681494E+00  5.5747767230047E-01
    87  8.6000000000000E-01  9.8251015046828E-01  5.9045795142350E-01
    88  8.7000000000000E-01  9.6004498501617E-01  6.2317020948856E-01
    89  8.8000000000000E-01  9.3707138140772E-01  6.5558365541374E-01
    90  8.9000000000000E-01  9.1361532500249E-01  6.8766941208265E-01
    91  9.0000000000000E-01  8.8970300365763E-01  7.1940033317407E-01
    92  9.1000000000000E-01  8.6536083996711E-01  7.5075079714823E-01
    93  9.2000000000000E-01  8.4061552818767E-01  7.8169648133046E-01
    94  9.3000000000000E-01  8.1549407497802E-01  8.1221411928370E-01
    95  9.4000000000000E-01  7.9002384301247E-01  8.4228124488073E-01
    96  9.5000000000000E-01  7.6423259647524E-01  8.7187592667138E-01
    97  9.6000000000000E-01  7.3814854739747E-01  9.0097649628716E-01
    98  9.7000000000000E-01  7.1180040176624E-01  9.2956127473489E-01
    99  9.8000000000000E-01  6.8521740431347E-01  9.5760830049857E-01
   100  9.9000000000000E-01  6.5842938088422E-01  9.8509506339594E-01
   101  1.0000000000000E+00  6.3146677728705E-01  1.0119982481201E+00
   102  1.0100000000000E+00  6.0436069354559E-01  1.0382934913389E+00
   103  1.0200000000000E+00  5.7714291249897E-01  1.0639551561227E+00
   104  1.0300000000000E+00  5.4984592174021E-01  1.0889561273305E+00
   105  1.0400000000000E+00  5.2250292793471E-01  1.1132676313979E+00
   106  1.0500000000000E+00  4.9514786262645E-01  1.1368590837481E+00
   107  1.0600000000000E+00  4.6781537871571E-01  1.1596979667859E+00
   108  1.0700000000000E+00  4.4054083687945E-01  1.1817497411360E+00
   109  1.0800000000000E+00  4.1336028130224E-01  1.2029777924569E+00
   110  1.0900000000000E+00  3.8631040419198E-01  1.2233434158017E+00
   111  1.1000000000000E+00  3.5942849866863E-01  1.2428058391062E+00
   112  1.1100000000000E+00  3.3275239973531E-01  1.2613222869781E+00
   113  1.1200000000000E+00  3.0632041316874E-01  1.2788480855253E+00
   114  1.1300000000000E+00  2.8017123229695E-01  1.2953368085178E+00
   115  1.1400000000000E+00  2.5434384276851E-01  1.3107404647185E+00
   116  1.1500000000000E+00  2.2887741555382E-01  1.3250097257547E+00
   117  1.1600000000000E+00  2.0381118855819E-01  1.3380941934345E+00
   118  1.1700000000000E+00  1.7918433736280E-01  1.3499427049476E+00
   119  1.1800000000000E+00  1.5503583574626E-01  1.3605036739351E+00
   120  1.1900000000000E+00  1.3140430677044E-01  1.3697254649632E+00
   121  1.2000000000000E+00  1.0832786534226E-01  1.3775567985117E+00
   122  1.2100000000000E+00  8.5843953283746E-02  1.3839471831749E+00
   123  1.2200000000000E+00  6.3989168056473E-02  1.3888473713944E+00
   124  1.2300000000000E+00  4.2799086391555E-02  1.3922098346843E+00
   125  1.2400000000000E+00  2.2308084170934E-02  1.3939892539951E+00
   126  1.2500000000000E+00  2.5491539904942E-03  1.3941430205715E+00
   127  1.2600000000000E+00 -1.6446278092993E-02  1.3926317424251E+00
   128  1.2700000000000E+00 -3.4648535069474E-02  1.3894197513328E+00
   129  1.2800000000000E+00 -5.2029869130594E-02  1.3844756051271E+00
   130  1.2900000000000E+00 -6.8564637833710E-02  1.3777725799291E+00
   131  1.3000000000000E+00 -8.4229474619961E-02  1.3692891469257E+00
   132  1.3100000000000E+00 -9.9003452030205E-02  1.3590094282795E+00
   133  1.3200000000000E+00 -1.1286823597697E-01  1.3469236268118E+00
   134  1.3300000000000E+00 -1.2580822945999E-01  1.3330284241910E+00
   135  1.3400000000000E+00 -1.3781070415869E-01  1.3173273425116E+00
   136  1.3500000000000E+00 -1.4886591839485E-01  1.2998310643463E+00
   137  1.3600000000000E+00 -1.5896722003528E-01  1.2805577066069E+00
   138  1.3700000000000E+00 -1.6811113299295E-01  1.2595330438423E+00
   139  1.3800000000000E+00 -1.7629742609028E-01  1.2367906769516E+00
   140  1.3900000000000E+00 -1.8352916316418E-01  1.2123721436720E+00
   141  1.4000000000000E+00 -1.8981273342209E-01  1.1863269676324E+00
   142  1.4100000000000E+00 -1.9515786119788E-01  1.1587126432241E+00
   143  1.4200000000000E+00 -1.9957759440693E-01  1.1295945540380E+00
   144  1.4300000000000E+00 -2.0308827115847E-01  1.0990458231429E+00
   145  1.4400000000000E+00 -2.0570946414923E-01  1.0671470940280E+00
   146  1.4500000000000E+00 -2.0746390263458E-01  1.0339862416008E+00
   147  1.4600000000000E+00 -2.0837737194991E-01  9.9965801321499E-01
   148  1.4700000000000E+00 -2.0847859073381E-01  9.6426360029218E-01
   149  1.4800000000000E+00 -2.0779906618614E-01  9.2791014169986E-01
   150  1.4900000000000E+00 -2.0637292787333E-01  8.9071016063784E-01
   151  1.5000000000000E+00 -2.0423674077212E-01  8.5278093737369E-01
   152  1.5100000000000E+00 -2.0142929841730E-01  8.1424382074076E-01
   153  1.5200000000000E+00 -1.9799139718848E-01  7.7522348186756E-01
   154  1.5300000000000E+00 -1.9396559293391E-01  7.3584711414142E-01
   155  1.5400000000000E+00 -1.8939594128293E-01  6.9624358391082E-01
   156  1.5500000000000E+00 -1.8432772314435E-01  6.5654253690652E-01
   157  1.5600000000000E+00 -1.7880715702086E-01  6.1687346579229E-01
   158  1.5700000000000E+00 -1.7288109989114E-01  5.7736474465082E-01
   159  1.5800000000000E+00 -1.6659673847467E-01  5.3814263622565E-01
   160  1.5900000000000E+00 -1.6000127286224E-01  4.9933027869293E-01
   161  1.6000000000000E+00 -1.5314159667498E-01  4.6104667395189E-01
   162  1.6100000000000E+00 -1.4606396813913E-01  4.2340562864167E-01
   163  1.6200000000000E+00 -1.3881386860101E-01  3.8651608610061E-01
   164  1.6300000000000E+00 -1.3143601775101E-01  3.5048345269337E-01
   165  1.6400000000000E+00 -1.2397422030301E-01  3.1540948654579E-01
   166  1.6500000000000E+00 -1.1647113360057E-01  2.8139154790958E-01
   167  1.6600000000000E+00 -1.0896805053962E-01  2.4852193917431E-01
   168  1.6700000000000E+00 -1.0150468951963E-01  2.1688726145067E-01
   169  1.6800000000000E+00 -9.4118994723450E-02  1.8656780630437E-01
   170  1.6900000000000E+00 -8.6846948369792E-02  1.5763698812138E-01
   171  1.7000000000000E+00 -7.9722396454762E-02  1.3016082204987E-01
   172  1.7100000000000E+00 -7.2776889424362E-02  1.0419745232823E-01
   173  1.7200000000000E+00 -6.6039539103848E-02  7.9796735411062E-02
   174  1.7300000000000E+00 -5.9536893081458E-02  5.6999881866169E-02
   175  1.7400000000000E+00 -5.3292827604152E-02  3.5839160538662E-02
   176  1.7500000000000E+00 -4.7328459893003E-02  1.6337667967565E-02
   177  1.7600000000000E+00 -4.1662080626923E-02 -1.4908344997877E-03
   178  1.7700000000000E+00 -3.6309107177052E-02 -1.7642014014861E-02
   179  1.7800000000000E+00 -3.1282058001687E-02 -3.2120988660388E-02
   180  1.7900000000000E+00 -2.6590548434645E-02 -4.4942278311174E-02
   181  1.8000000000000E+00 -2.2241307920126E-02 -5.6129683834527E-02
   182  1.8100000000000E+00 -1.8238218565835E-02 -6.5716095154140E-02
   183  1.8200000000000E+00 -1.4582374705190E-02 -7.3743229312173E-02
   184  1.8300000000000E+00 -1.1272162980321E-02 -8.0261300268416E-02
   185  1.8400000000000E+00 -8.3033622819272E-03 -8.5328622767365E-02
   186  1.8500000000000E+00 -5.6692627116436E-03 -8.9011153177973E-02
   187  1.8600000000000E+00 -3.3608025680207E-03 -9.1381970764379E-02
   188  1.8700000000000E+00 -1.3667222023989E-03 -9.2520703366450E-02
   189  1.8800000000000E+00  3.2626655622748E-04 -9.2512901963267E-02
   190  1.8900000000000E+00  1.7332968441696E-03 -9.1449369048598E-02
   191  1.9000000000000E+00  2.8711506333857E-03 -8.9425446158745E-02
   192  1.9100000000000E+00  3.7580516996522E-03 -8.6540266264098E-02
   193  1.9200000000000E+00  4.4134494551542E-03 -8.2895977056848E-02
   194  1.9300000000000E+00  4.8577954931786E-03 -7.8596941437410E-02
   195  1.9400000000000E+00  5.1123147579147E-03 -7.3748921718905E-02
   196  1.9500000000000E+00  5.1987733013579E-03 -6.8458254230573E-02
   197  1.9600000000000E+00  5.1392446207212E-03 -6.2831021103280E-02
   198  1.9700000000000E+00  4.9558809544910E-03 -5.6972239797221E-02
   199  1.9800000000000E+00  4.6706505360734E-03 -5.0984948415824E-02
   200  1.9900000000000E+00  4.3052006749315E-03 -4.4969688929341E-02
   201  2.0000000000000E+00  3.8805272801505E-03 -3.9023388114710E-02
   202  2.0100000000000E+00  3.4157366059726E-03 -3.3235387500447E-02
   203  2.0200000000000E+00  2.9249999943556E-03 -2.7677779271100E-02
   204  2.0300000000000E+00  2.4263618783726E-03 -2.2433014631351E-02
   205  2.0400000000000E+00  1.9388009733184E-03 -1.7584638285284E-02
   206  2.0500000000000E+00  1.4790779845115E-03 -1.3207339199581E-02
   207  2.0600000000000E+00  1.0622095842221E-03 -9.3683805432871E-03
   208  2.0700000000000E+00  7.0121942349736E-04 -6.1267708383232E-03
   209  2.0800000000000E+00  4.0716668998228E-04 -3.5341977873032E-03
   210  2.0900000000000E+00  1.8746623859933E-04 -1.6209925586320E-03
   211  2.1000000000000E+00  5.2289818423538E-05 -4.5193836221255E-04
   212  2.1100000000000E+00  1.3789847900619E-06 -1.2608984482616E-05
   213  2.1200000000000E+00 -2.0671396670218E-06  1.7639246964767E-05
   214  2.1300000000000E+00  1.0374665062096E-06 -8.8677908563346E-06
   215  2.14 -0.  0.
   216  2.15  0. -0.
   217  2.16  0. -0.
   218  2.17  0.  0.
   219  2.18  0.  0.
   220  2.19  0.  0.
   221  2.20  0.  0.
   222  2.21  0.  0.
   223  2.22  0.  0.
   224  2.23  0.  0.
   225  2.24  0.  0.
   226  2.25  0.  0.
   227  2.26  0.  0.
   228  2.27  0.  0.
   229  2.28  0.  0.
   230  2.29  0.  0.
   231  2.30  0.  0.
   232  2.31  0.  0.
   233  2.32  0.  0.
   234  2.33  0.  0.
   235  2.34  0.  0.
   236  2.35  0.  0.
   237  2.36  0.  0.
   238  2.37  0.  0.
   239  2.38  0.  0.
   240  2.39  0.  0.
   241  2.40  0.  0.
   242  2.41  0.  0.
   243  2.42  0.  0.
   244  2.43  0.  0.
   245  2.44  0.  0.
   246  2.45  0.  0.
   247  2.46  0.  0.
   248  2.47  0.  0.
   249  2.48  0.  0.
   250  2.49  0.  0.
   251  2.50  0.  0.
   252  2.51  0.  0.
   253  2.52  0.  0.
   254  2.53  0.  0.
   255  2.54  0.  0.
   256  2.55  0.  0.
   257  2.56  0.  0.
   258  2.57  0.  0.
   259  2.58  0.  0.
   260  2.59  0.  0.
   261  2.60  0.  0.
   262  2.61  0.  0.
   263  2.62  0.  0.
   264  2.63  0.  0.
   265  2.64  0.  0.
   266  2.65  0.  0.
   267  2.66  0.  0.
   268  2.67  0.  0.
   269  2.68  0.  0.
   270  2.69  0.  0.
   271  2.70  0.  0.
   272  2.71  0.  0.
   273  2.72  0.  0.
   274  2.73  0.  0.
   275  2.74  0.  0.
   276  2.75  0.  0.
   277  2.76  0.  0.
   278  2.77  0.  0.
   279  2.78  0.  0.
   280  2.79  0.  0.
   281  2.80  0.  0.
   282  2.81  0.  0.
   283  2.82  0.  0.
   284  2.83  0.  0.
   285  2.84  0.  0.
   286  2.85  0.  0.
   287  2.86  0.  0.
   288  2.87  0.  0.
   289  2.88  0.  0.
   290  2.89  0.  0.
   291  2.90  0.  0.
   292  2.91  0.  0.
   293  2.92  0.  0.
   294  2.93  0.  0.
   295  2.94  0.  0.
   296  2.95  0.  0.
   297  2.96  0.  0.
   298  2.97  0.  0.
   299  2.98  0.  0.
   300  2.99  0.  0.
   301  3.00  0.  0.
   302  3.01  0.  0.
   303  3.02  0.  0.
   304  3.03  0.  0.
   305  3.04  0.  0.
   306  3.05  0.  0.
   307  3.06  0.  0.
   308  3.07  0.  0.
   309  3.08  0.  0.
   310  3.09  0.  0.
   311  3.10  0.  0.
   312  3.11  0.  0.
   313  3.12  0.  0.
   314  3.13  0.  0.
   315  3.14  0.  0.
   316  3.15  0.  0.
   317  3.16  0.  0.
   318  3.17  0.  0.
   319  3.18  0.  0.
   320  3.19  0.  0.
   321  3.20  0.  0.
   322  3.21  0.  0.
   323  3.22  0.  0.
   324  3.23  0.  0.
   325  3.24  0.  0.
   326  3.25  0.  0.
   327  3.26  0.  0.
   328  3.27  0.  0.
   329  3.28  0.  0.
   330  3.29  0.  0.
   331  3.30  0.  0.
   332  3.31  0.  0.
   333  3.32  0.  0.
   334  3.33  0.  0.
   335  3.34  0.  0.
   336  3.35  0.  0.
   337  3.36  0.  0.
   338  3.37  0.  0.
   339  3.38  0.  0.
   340  3.39  0.  0.
   341  3.40  0.  0.
   342  3.41  0.  0.
   343  3.42  0.  0.
   344  3.43  0.  0.
   345  3.44  0.  0.
   346  3.45  0.  0.
   347  3.46  0.  0.
   348  3.47  0.  0.
   349  3.48  0.  0.
   350  3.49  0.  0.
   351  3.50  0.  0.
   352  3.51  0.  0.
   353  3.52  0.  0.
   354  3.53  0.  0.
   355  3.54  0.  0.
   356  3.55  0.  0.
   357  3.56  0.  0.
   358  3.57  0.  0.
   359  3.58  0.  0.
   360  3.59  0.  0.
   361  3.60  0.  0.
   362  3.61  0.  0.
   363  3.62  0.  0.
   364  3.63  0.  0.
   365  3.64  0.  0.
   366  3.65  0.  0.
   367  3.66  0.  0.
   368  3.67  0.  0.
   369  3.68  0.  0.
   370  3.69  0.  0.
   371  3.70  0.  0.
   372  3.71  0.  0.
   373  3.72  0.  0.
   374  3.73  0.  0.
   375  3.74  0.  0.
   376  3.75  0.  0.
   377  3.76  0.  0.
   378  3.77  0.  0.
   379  3.78  0.  0.
   380  3.79  0.  0.
   381  3.80  0.  0.
   382  3.81  0.  0.
   383  3.82  0.  0.
   384  3.83  0.  0.
   385  3.84  0.  0.
   386  3.85  0.  0.
   387  3.86  0.  0.
   388  3.87  0.  0.
   389  3.88  0.  0.
   390  3.89  0.  0.
   391  3.90  0.  0.
   392  3.91  0.  0.
   393  3.92  0.  0.
   394  3.93  0.  0.
   395  3.94  0.  0.
   396  3.95  0.  0.
   397  3.96  0.  0.
   398  3.97  0.  0.
   399  3.98  0.  0.
   400  3.99  0.  0.
   401  4.00  0.  0.
   402  4.01  0.  0.
   403  4.02  0.  0.
   404  4.03  0.  0.
   405  4.04  0.  0.
   406  4.05  0.  0.
   407  4.06  0.  0.
   408  4.07  0.  0.
   409  4.08  0.  0.
   410  4.09  0.  0.
   411  4.10  0.  0.
   412  4.11  0.  0.
   413  4.12  0.  0.
   414  4.13  0.  0.
   415  4.14  0.  0.
   416  4.15  0.  0.
   417  4.16  0.  0.
   418  4.17  0.  0.
   419  4.18  0.  0.
   420  4.19  0.  0.
   421  4.20  0.  0.
   422  4.21  0.  0.
   423  4.22  0.  0.
   424  4.23  0.  0.
   425  4.24  0.  0.
   426  4.25  0.  0.
   427  4.26  0.  0.
   428  4.27  0.  0.
   429  4.28  0.  0.
   430  4.29  0.  0.
   431  4.30  0.  0.
   432  4.31  0.  0.
   433  4.32  0.  0.
   434  4.33  0.  0.
   435  4.34  0.  0.
   436  4.35  0.  0.
   437  4.36  0.  0.
   438  4.37  0.  0.
   439  4.38  0.  0.
   440  4.39  0.  0.
   441  4.40  0.  0.
   442  4.41  0.  0.
   443  4.42  0.  0.
   444  4.43  0.  0.
   445  4.44  0.  0.
   446  4.45  0.  0.
   447  4.46  0.  0.
   448  4.47  0.  0.
   449  4.48  0.  0.
   450  4.49  0.  0.
   451  4.50  0.  0.
   452  4.51  0.  0.
   453  4.52  0.  0.
   454  4.53  0.  0.
   455  4.54  0.  0.
   456  4.55  0.  0.
   457  4.56  0.  0.
   458  4.57  0.  0.
   459  4.58  0.  0.
   460  4.59  0.  0.
   461  4.60  0.  0.
   462  4.61  0.  0.
   463  4.62  0.  0.
   464  4.63  0.  0.
   465  4.64  0.  0.
   466  4.65  0.  0.
   467  4.66  0.  0.
   468  4.67  0.  0.
   469  4.68  0.  0.
   470  4.69  0.  0.
   471  4.70  0.  0.
   472  4.71  0.  0.
   473  4.72  0.  0.
   474  4.73  0.  0.
   475  4.74  0.  0.
   476  4.75  0.  0.
   477  4.76  0.  0.
   478  4.77  0.  0.
   479  4.78  0.  0.
   480  4.79  0.  0.
   481  4.80  0.  0.
   482  4.81  0.  0.
   483  4.82  0.  0.
   484  4.83  0.  0.
   485  4.84  0.  0.
   486  4.85  0.  0.
   487  4.86  0.  0.
   488  4.87  0.  0.
   489  4.88  0.  0.
   490  4.89  0.  0.
   491  4.90  0.  0.
   492  4.91  0.  0.
   493  4.92  0.  0.
   494  4.93  0.  0.
   495  4.94  0.  0.
   496  4.95  0.  0.
   497  4.96  0.  0.
   498  4.97  0.  0.
   499  4.98  0.  0.
   500  4.99  0.  0.
   501  5.00  0.  0.
   502  5.01  0.  0.
   503  5.02  0.  0.
   504  5.03  0.  0.
   505  5.04  0.  0.
   506  5.05  0.  0.
   507  5.06  0.  0.
   508  5.07  0.  0.
   509  5.08  0.  0.
   510  5.09  0.  0.
   511  5.10  0.  0.
   512  5.11  0.  0.
   513  5.12  0.  0.
   514  5.13  0.  0.
   515  5.14  0.  0.
   516  5.15  0.  0.
   517  5.16  0.  0.
   518  5.17  0.  0.
   519  5.18  0.  0.
   520  5.19  0.  0.
   521  5.20  0.  0.
   522  5.21  0.  0.
   523  5.22  0.  0.
   524  5.23  0.  0.
   525  5.24  0.  0.
   526  5.25  0.  0.
   527  5.26  0.  0.
   528  5.27  0.  0.
   529  5.28  0.  0.
   530  5.29  0.  0.
   531  5.30  0.  0.
   532  5.31  0.  0.
   533  5.32  0.  0.
   534  5.33  0.  0.
   535  5.34  0.  0.
   536  5.35  0.  0.
   537  5.36  0.  0.
   538  5.37  0.  0.
   539  5.38  0.  0.
   540  5.39  0.  0.
   541  5.40  0.  0.
   542  5.41  0.  0.
   543  5.42  0.  0.
   544  5.43  0.  0.
   545  5.44  0.  0.
   546  5.45  0.  0.
   547  5.46  0.  0.
   548  5.47  0.  0.
   549  5.48  0.  0.
   550  5.49  0.  0.
   551  5.50  0.  0.
   552  5.51  0.  0.
   553  5.52  0.  0.
   554  5.53  0.  0.
   555  5.54  0.  0.
   556  5.55  0.  0.
   557  5.56  0.  0.
   558  5.57  0.  0.
   559  5.58  0.  0.
   560  5.59  0.  0.
   561  5.60  0.  0.
   562  5.61  0.  0.
   563  5.62  0.  0.
   564  5.63  0.  0.
   565  5.64  0.  0.
   566  5.65  0.  0.
   567  5.66  0.  0.
   568  5.67  0.  0.
   569  5.68  0.  0.
   570  5.69  0.  0.
   571  5.70  0.  0.
   572  5.71  0.  0.
   573  5.72  0.  0.
   574  5.73  0.  0.
   575  5.74  0.  0.
   576  5.75  0.  0.
   577  5.76  0.  0.
   578  5.77  0.  0.
   579  5.78  0.  0.
   580  5.79  0.  0.
   581  5.80  0.  0.
   582  5.81  0.  0.
   583  5.82  0.  0.
   584  5.83  0.  0.
   585  5.84  0.  0.
   586  5.85  0.  0.
   587  5.86  0.  0.
   588  5.87  0.  0.
   589  5.88  0.  0.
   590  5.89  0.  0.
   591  5.90  0.  0.
   592  5.91  0.  0.
   593  5.92  0.  0.
   594  5.93  0.  0.
   595  5.94  0.  0.
   596  5.95  0.  0.
   597  5.96  0.  0.
   598  5.97  0.  0.
   599  5.98  0.  0.
   600  5.99  0.  0.
   1                         4.5505601372587E+00  7.4035569426450E-01
     1  0.0000000000000E+00 -8.2782992266717E-11  9.6772201363393E-11
     2  1.0000000000000E-02 -2.8732623207310E-04  1.2637976242626E-03
     3  2.0000000000000E-02 -1.1456703116809E-03  5.0481949644197E-03
     4  3.0000000000000E-02 -2.5641470399610E-03  1.1332236345602E-02
     5  4.0000000000000E-02 -4.5246765542535E-03  2.0081098686241E-02
     6  5.0000000000000E-02 -7.0020774096795E-03  3.1246245943508E-02
     7  6.0000000000000E-02 -9.9641966470384E-03  4.4765645091429E-02
     8  7.0000000000000E-02 -1.3372076593270E-02  6.0564043370228E-02
     9  8.0000000000000E-02 -1.7180158057943E-02  7.8553306448671E-02
    10  9.0000000000000E-02 -2.1336519498918E-02  9.8632817028147E-02
    11  1.0000000000000E-01 -2.5783151631366E-02  1.2068993328558E-01
    12  1.1000000000000E-01 -3.0456266845565E-02  1.4460050639925E-01
    13  1.2000000000000E-01 -3.5286642679508E-02  1.7022945622544E-01
    14  1.3000000000000E-01 -4.0199998461835E-02  1.9743140399334E-01
    15  1.4000000000000E-01 -4.5117404098598E-02  2.2605136065945E-01
    16  1.5000000000000E-01 -4.9955719823976E-02  2.5592546931135E-01
    17  1.6000000000000E-01 -5.4628065570598E-02  2.8688179973399E-01
    18  1.7000000000000E-01 -5.9044318440270E-02  3.1874119295100E-01
    19  1.8000000000000E-01 -6.3111636571663E-02  3.5131815323047E-01
    20  1.9000000000000E-01 -6.6735007509182E-02  3.8442178470197E-01
    21  2.0000000000000E-01 -6.9817818978408E-02  4.1785676937128E-01
    22  2.1000000000000E-01 -7.2262449770174E-02  4.5142438294644E-01
    23  2.2000000000000E-01 -7.3970878229535E-02  4.8492354450585E-01
    24  2.3000000000000E-01 -7.4845305640232E-02  5.1815189565214E-01
    25  2.4000000000000E-01 -7.4788791592117E-02  5.5090690440838E-01
    26  2.5000000000000E-01 -7.3705898221445E-02  5.8298698873235E-01
    27  2.6000000000000E-01 -7.1503340024712E-02  6.1419265415456E-01
    28  2.7000000000000E-01 -6.8090635768927E-02  6.4432763969365E-01
    29  2.8000000000000E-01 -6.3380758857890E-02  6.7320006587335E-01
    30  2.9000000000000E-01 -5.7290782368343E-02  7.0062357836591E-01
    31  3.0000000000000E-01 -4.9742514844666E-02  7.2641848052183E-01
    32  3.1000000000000E-01 -4.0663122839192E-02  7.5041284782299E-01
    33  3.2000000000000E-01 -2.9985736109835E-02  7.7244361711891E-01
    34  3.3000000000000E-01 -1.7650031340235E-02  7.9235764338104E-01
    35  3.4000000000000E-01 -3.6027902323496E-03  8.1001271664113E-01
    36  3.5000000000000E-01  1.2201572160600E-02  8.2527853177192E-01
    37  3.6000000000000E-01  2.9800512939970E-02  8.3803760382400E-01
    38  3.7000000000000E-01  4.9222904696155E-02  8.4818612175618E-01
    39  3.8000000000000E-01  7.0488620534832E-02  8.5563473358885E-01
    40  3.9000000000000E-01  9.3608164493685E-02  8.6030925627206E-01
    41  4.0000000000000E-01  1.1858235084581E-01  8.6215130389434E-01
    42  4.1000000000000E-01  1.4540203554591E-01  8.6111882826159E-01
    43  4.2000000000000E-01  1.7404790279853E-01  8.5718656634893E-01
    44  4.3000000000000E-01  2.0449030941527E-01  8.5034638966858E-01
    45  4.4000000000000E-01  2.3668918928177E-01  8.4060755120016E-01
    46  4.5000000000000E-01  2.7059401987795E-01  8.2799682619404E-01
    47  4.6000000000000E-01  3.0614385238855E-01  8.1255854387610E-01
    48  4.7000000000000E-01  3.4326740650929E-01  7.9435450785005E-01
    49  4.8000000000000E-01  3.8188323059979E-01  7.7346380380334E-01
    50  4.9000000000000E-01  4.2189992736216E-01  7.4998249396815E-01
    51  5.0000000000000E-01  4.6321644473792E-01  7.2402319866184E-01
    52  5.1000000000000E-01  5.0572243121957E-01  6.9571456612369E-01
    53  5.2000000000000E-01  5.4929865427285E-01  6.6520063276729E-01
    54  5.3000000000000E-01  5.9381748006408E-01  6.3264007687203E-01
    55  5.4000000000000E-01  6.3914341219178E-01  5.9820536963326E-01
    56  5.5000000000000E-01  6.8513368663501E-01  5.6208182836914E-01
    57  5.6000000000000E-01  7.3163891966060E-01  5.2446657753401E-01
    58  5.7000000000000E-01  7.7850380497987E-01  4.8556742400324E-01
    59  5.8000000000000E-01  8.2556785601959E-01  4.4560165386499E-01
    60  5.9000000000000E-01  8.7266618877517E-01  4.0479475866986E-01
    61  6.0000000000000E-01  9.1963034035106E-01  3.6337909974340E-01
    62  6.1000000000000E-01  9.6628911796856E-01  3.2159251975013E-01
    63  6.2000000000000E-01  1.0124694729379E+00  2.7967691120428E-01
    64  6.3000000000000E-01  1.0579973938535E+00  2.3787675204631E-01
    65  6.4000000000000E-01  1.1026988130797E+00  1.9643761873931E-01
    66  6.5000000000000E-01  1.1464005204568E+00  1.5560468758177E-01
    67  6.6000000000000E-01  1.1889310780645E+00  1.1562123507918E-01
    68  6.7000000000000E-01  1.2301217298510E+00  7.6727148264865E-02
    69  6.8000000000000E-01  1.2698072999481E+00  3.9157455808034E-02
    70  6.9000000000000E-01  1.3078270735734E+00  3.1408905955301E-03
    71  7.0000000000000E-01  1.3440256545404E+00 -3.1101505776994E-02
    72  7.1000000000000E-01  1.3782537935834E+00 -6.3357726515673E-02
    73  7.2000000000000E-01  1.4103691819278E+00 -9.3426081492295E-02
    74  7.3000000000000E-01  1.4402372048218E+00 -1.2111640834202E-01
    75  7.4000000000000E-01  1.4677316500652E+00 -1.4625120428815E-01
    76  7.5000000000000E-01  1.4927353669420E+00 -1.6866667087659E-01
    77  7.6000000000000E-01  1.5151408713662E+00 -1.8821366456230E-01
    78  7.7000000000000E-01  1.5348508934957E+00 -2.0475854691090E-01
    79  7.8000000000000E-01  1.5517788645349E+00 -2.1818392905323E-01
    80  7.9000000000000E-01  1.5658493399477E+00 -2.2838930594780E-01
    81  8.0000000000000E-01  1.5769983568137E+00 -2.3529157695814E-01
    82  8.1000000000000E-01  1.5851737235965E+00 -2.3882545022709E-01
    83  8.2000000000000E-01  1.5903352411272E+00 -2.3894372931800E-01
    84  8.3000000000000E-01  1.5924548541552E+00 -2.3561748158400E-01
    85  8.4000000000000E-01  1.5915167333558E+00 -2.2883608870912E-01
    86  8.5000000000000E-01  1.5875172882201E+00 -2.1860718082980E-01
    87  8.6000000000000E-01  1.5804651117734E+00 -2.0495645658133E-01
    88  8.7000000000000E-01  1.5703808585724E+00 -1.8792739231203E-01
    89  8.8000000000000E-01  1.5572970579103E+00 -1.6758084455910E-01
    90  8.9000000000000E-01  1.5412578646130E+00 -1.4399455067525E-01
    91  9.0000000000000E-01  1.5223187502312E+00 -1.1726253322734E-01
    92  9.1000000000000E-01  1.5005461378177E+00 -8.7494414450133E-02