Se    ONCVPSP-4.0.1  r_core=   2.11097   1.87294   2.11097
     34.0000     16.0000      230118    zatom,zion,pspd
     8       2   2     4   600     0    pspcod,pspxc,lmax,lloc,mmax,r2well
  5.99000000  5.00000000  0.00000000    rchrg fchrg qchrg
     2     2     2     0     0    nproj
     1     1           extension_switch
   0                         6.4493906353835E+00  1.3494009113439E+00
     1  0.0000000000000E+00 -1.4096984690681E-10  1.8157292336340E-10
     2  1.0000000000000E-02  4.7146752497912E-02 -1.7831065782275E-02
     3  2.0000000000000E-02  9.4152541275441E-02 -3.5515186647243E-02
     4  3.0000000000000E-02  1.4087724697887E-01 -5.2906429188368E-02
     5  4.0000000000000E-02  1.8718243343036E-01 -6.9860876062915E-02
     6  5.0000000000000E-02  2.3293217535807E-01 -8.6237616675625E-02
     7  6.0000000000000E-02  2.7799386959683E-01 -1.0189971717335E-01
     8  7.0000000000000E-02  3.2223902441571E-01 -1.1671516306819E-01
     9  8.0000000000000E-02  3.6554402176952E-01 -1.3055776798811E-01
    10  9.0000000000000E-02  4.0779084744615E-01 -1.4330804227910E-01
    11  1.0000000000000E-01  4.4886778428846E-01 -1.5485401544922E-01
    12  1.1000000000000E-01  4.8867006390817E-01 -1.6509200675175E-01
    13  1.2000000000000E-01  5.2710047257687E-01 -1.7392733854975E-01
    14  1.3000000000000E-01  5.6406990727579E-01 -1.8127498748496E-01
    15  1.4000000000000E-01  5.9949787820831E-01 -1.8706016888867E-01
    16  1.5000000000000E-01  6.3331295442610E-01 -1.9121885031749E-01
    17  1.6000000000000E-01  6.6545314958831E-01 -1.9369819057075E-01
    18  1.7000000000000E-01  6.9586624526216E-01 -1.9445690104448E-01
    19  1.8000000000000E-01  7.2451004957923E-01 -1.9346552679790E-01
    20  1.9000000000000E-01  7.5135258948243E-01 -1.9070664524721E-01
    21  2.0000000000000E-01  7.7637223523196E-01 -1.8617498095567E-01
    22  2.1000000000000E-01  7.9955775628079E-01 -1.7987743555497E-01
    23  2.2000000000000E-01  8.2090830807970E-01 -1.7183303240621E-01
    24  2.3000000000000E-01  8.4043334982459E-01 -1.6207277618698E-01
    25  2.4000000000000E-01  8.5815249361328E-01 -1.5063942816910E-01
    26  2.5000000000000E-01  8.7409528593058E-01 -1.3758719852656E-01
    27  2.6000000000000E-01  8.8830092282830E-01 -1.2298135758114E-01
    28  2.7000000000000E-01  9.0081790060605E-01 -1.0689776845012E-01
    29  2.8000000000000E-01  9.1170360422813E-01 -8.9422344102893E-02
    30  2.9000000000000E-01  9.2102383612770E-01 -7.0650432358063E-02
    31  3.0000000000000E-01  9.2885228844927E-01 -5.0686132854912E-02
    32  3.1000000000000E-01  9.3526996216216E-01 -2.9641550511451E-02
    33  3.2000000000000E-01  9.4036453683754E-01 -7.6359904304353E-03
    34  3.3000000000000E-01  9.4422969521905E-01  1.5204900366603E-02
    35  3.4000000000000E-01  9.4696440702747E-01  3.8750038613335E-02
    36  3.5000000000000E-01  9.4867217672410E-01  6.2863851769198E-02
    37  3.6000000000000E-01  9.4946026021020E-01  8.7407259867189E-02
    38  3.7000000000000E-01  9.4943885566285E-01  1.1223868555300E-01
    39  3.8000000000000E-01  9.4872027389601E-01  1.3721508540660E-01
    40  3.9000000000000E-01  9.4741809379063E-01  1.6219299545956E-01
    41  4.0000000000000E-01  9.4564630845653E-01  1.8702958369018E-01
    42  4.1000000000000E-01  9.4351846787162E-01  2.1158370219473E-01
    43  4.2000000000000E-01  9.4114682378921E-01  2.3571693169848E-01
    44  4.3000000000000E-01  9.3864148271207E-01  2.5929461108371E-01
    45  4.4000000000000E-01  9.3610957270174E-01  2.8218684467548E-01
    46  4.5000000000000E-01  9.3365442972343E-01  3.0426948013800E-01
    47  4.6000000000000E-01  9.3137480912117E-01  3.2542504999547E-01
    48  4.7000000000000E-01  9.2936412767521E-01  3.4554366999997E-01
    49  4.8000000000000E-01  9.2770974151392E-01  3.6452388782484E-01
    50  4.9000000000000E-01  9.2649226493815E-01  3.8227347586260E-01
    51  5.0000000000000E-01  9.2578493496663E-01  3.9871016225143E-01
    52  5.1000000000000E-01  9.2565302612920E-01  4.1376229464056E-01
    53  5.2000000000000E-01  9.2615331972170E-01  4.2736943163063E-01
    54  5.3000000000000E-01  9.2733363139375E-01  4.3948285728772E-01
    55  5.4000000000000E-01  9.2923240057128E-01  4.5006601462634E-01
    56  5.5000000000000E-01  9.3187834482059E-01  4.5909485448449E-01
    57  5.6000000000000E-01  9.3529018184393E-01  4.6655809676861E-01
    58  5.7000000000000E-01  9.3947642135893E-01  4.7245740162622E-01
    59  5.8000000000000E-01  9.4443522866003E-01  4.7680744870324E-01
    60  5.9000000000000E-01  9.5015436119090E-01  4.7963592326005E-01
    61  6.0000000000000E-01  9.5661117897680E-01  4.8098340854851E-01
    62  6.1000000000000E-01  9.6377272927702E-01  4.8090318449062E-01
    63  6.2000000000000E-01  9.7159590532391E-01  4.7946093334046E-01
    64  6.3000000000000E-01  9.8002767851919E-01  4.7673435365323E-01
    65  6.4000000000000E-01  9.8900540296378E-01  4.7281268452283E-01
    66  6.5000000000000E-01  9.9845719070754E-01  4.6779614267807E-01
    67  6.6000000000000E-01  1.0083023556232E+00  4.6179527564397E-01
    68  6.7000000000000E-01  1.0184519233376E+00  4.5493023477335E-01
    69  6.8000000000000E-01  1.0288092041969E+00  4.4732997253204E-01
    70  6.9000000000000E-01  1.0392704258016E+00  4.3913136897286E-01
    71  7.0000000000000E-01  1.0497254212305E+00  4.3047829285766E-01
    72  7.1000000000000E-01  1.0600583686736E+00  4.2152060337586E-01
    73  7.2000000000000E-01  1.0701485778265E+00  4.1241309886282E-01
    74  7.3000000000000E-01  1.0798713180562E+00  4.0331441933433E-01
    75  7.4000000000000E-01  1.0890986830380E+00  3.9438591002489E-01
    76  7.5000000000000E-01  1.0977004862877E+00  3.8579045344242E-01
    77  7.6000000000000E-01  1.1055451817681E+00  3.7769127772852E-01
    78  7.7000000000000E-01  1.1125008035503E+00  3.7025074933967E-01
    79  7.8000000000000E-01  1.1184359183380E+00  3.6362915823801E-01
    80  7.9000000000000E-01  1.1232205845439E+00  3.5798350389948E-01
    81  8.0000000000000E-01  1.1267273115191E+00  3.5346629051115E-01
    82  8.1000000000000E-01  1.1288320124962E+00  3.5022433973678E-01
    83  8.2000000000000E-01  1.1294149448074E+00  3.4839762938034E-01
    84  8.3000000000000E-01  1.1283616309838E+00  3.4811816617091E-01
    85  8.4000000000000E-01  1.1255637544251E+00  3.4950890072930E-01
    86  8.5000000000000E-01  1.1209200234637E+00  3.5268269255763E-01
    87  8.6000000000000E-01  1.1143369978133E+00  3.5774133261880E-01
    88  8.7000000000000E-01  1.1057298716086E+00  3.6477463074531E-01
    89  8.8000000000000E-01  1.0950232074931E+00  3.7385957473680E-01
    90  8.9000000000000E-01  1.0821516165034E+00  3.8505956757691E-01
    91  9.0000000000000E-01  1.0670603788278E+00  3.9842374872301E-01
    92  9.1000000000000E-01  1.0497060008785E+00  4.1398640490203E-01
    93  9.2000000000000E-01  1.0300567045122E+00  4.3176647528351E-01
    94  9.3000000000000E-01  1.0080928446618E+00  4.5176715530132E-01
    95  9.4000000000000E-01  9.8380725209273E-01  4.7397560276249E-01
    96  9.5000000000000E-01  9.5720549847745E-01  4.9836274921789E-01
    97  9.6000000000000E-01  9.2830608148009E-01  5.2488321888137E-01
    98  9.7000000000000E-01  8.9714052806250E-01  5.5347535667365E-01
    99  9.8000000000000E-01  8.6375341475479E-01  5.8406136624169E-01
   100  9.9000000000000E-01  8.2820230417895E-01  6.1654755806620E-01
   101  1.0000000000000E+00  7.9055759766564E-01  6.5082470702637E-01
   102  1.0100000000000E+00  7.5090230436153E-01  6.8676851804447E-01
   103  1.0200000000000E+00  7.0933172778104E-01  7.2424019769149E-01
   104  1.0300000000000E+00  6.6595307130993E-01  7.6308712890111E-01
   105  1.0400000000000E+00  6.2088496471468E-01  8.0314364521982E-01
   106  1.0500000000000E+00  5.7425691424762E-01  8.4423190031950E-01
   107  1.0600000000000E+00  5.2620867945764E-01  8.8616282782257E-01
   108  1.0700000000000E+00  4.7688958032041E-01  9.2873718583994E-01
   109  1.0800000000000E+00  4.2645773878217E-01  9.7174668000727E-01
   110  1.0900000000000E+00  3.7507925926732E-01  1.0149751582272E+00
   111  1.1000000000000E+00  3.2292735312801E-01  1.0581998697890E+00
   112  1.1100000000000E+00  2.7018141240933E-01  1.1011927810470E+00
   113  1.1200000000000E+00  2.1702603866630E-01  1.1437219394003E+00
   114  1.1300000000000E+00  1.6365003289319E-01  1.1855528769260E+00
   115  1.1400000000000E+00  1.1024535291176E-01  1.2264500446899E+00
   116  1.1500000000000E+00  5.7006044808435E-02  1.2661782684845E+00
   117  1.1600000000000E+00  4.1271552117791E-03  1.3045042165324E+00
   118  1.1700000000000E+00 -4.8196368643311E-02  1.3411978695449E+00
   119  1.1800000000000E+00 -9.9770784008389E-02  1.3760339834425E+00
   120  1.1900000000000E+00 -1.5040465575302E-01  1.4087935350213E+00
   121  1.2000000000000E+00 -1.9990995040245E-01  1.4392651409020E+00
   122  1.2100000000000E+00 -2.4810311398267E-01  1.4672464402058E+00
   123  1.2200000000000E+00 -2.9480612665612E-01  1.4925454315832E+00
   124  1.2300000000000E+00 -3.3984752726161E-01  1.5149817554668E+00
   125  1.2400000000000E+00 -3.8306340104819E-01  1.5343879127214E+00
   126  1.2500000000000E+00 -4.2429832411702E-01  1.5506104112411E+00
   127  1.2600000000000E+00 -4.6340625835271E-01  1.5635108324672E+00
   128  1.2700000000000E+00 -5.0025139093622E-01  1.5729668102892E+00
   129  1.2800000000000E+00 -5.3470891288491E-01  1.5788729153314E+00
   130  1.2900000000000E+00 -5.6666573145589E-01  1.5811414382213E+00
   131  1.3000000000000E+00 -5.9602111167544E-01  1.5797030660706E+00
   132  1.3100000000000E+00 -6.2268724272013E-01  1.5745074470853E+00
   133  1.3200000000000E+00 -6.4658972536604E-01  1.5655236389400E+00
   134  1.3300000000000E+00 -6.6766797723984E-01  1.5527404373040E+00
   135  1.3400000000000E+00 -6.8587555315006E-01  1.5361665816918E+00
   136  1.3500000000000E+00 -7.0118037833795E-01  1.5158308366147E+00
   137  1.3600000000000E+00 -7.1356489306662E-01  1.4917819468369E+00
   138  1.3700000000000E+00 -7.2302610755613E-01  1.4640884663712E+00
   139  1.3800000000000E+00 -7.2957556687375E-01  1.4328384616988E+00
   140  1.3900000000000E+00 -7.3323922598960E-01  1.3981390905360E+00
   141  1.4000000000000E+00 -7.3405723581180E-01  1.3601160583165E+00
   142  1.4100000000000E+00 -7.3208364161201E-01  1.3189129553775E+00
   143  1.4200000000000E+00 -7.2738599584391E-01  1.2746904786596E+00
   144  1.4300000000000E+00 -7.2004488793385E-01  1.2276255425126E+00
   145  1.4400000000000E+00 -7.1015339418264E-01  1.1779102839658E+00
   146  1.4500000000000E+00 -6.9781645145840E-01  1.1257509685484E+00
   147  1.4600000000000E+00 -6.8315015887499E-01  1.0713668034363E+00
   148  1.4700000000000E+00 -6.6628101213773E-01  1.0149886653474E+00
   149  1.4800000000000E+00 -6.4734507569479E-01  9.5685775120965E-01
   150  1.4900000000000E+00 -6.2648709825249E-01  8.9722416017017E-01
   151  1.5000000000000E+00 -6.0385957759619E-01  8.3634541600459E-01
   152  1.5100000000000E+00 -5.7962178100082E-01  7.7448493941697E-01
   153  1.5200000000000E+00 -5.5393872781462E-01  7.1191048008747E-01
   154  1.5300000000000E+00 -5.2698014105384E-01  6.4889251862628E-01
   155  1.5400000000000E+00 -4.9891937505305E-01  5.8570264882510E-01
   156  1.5500000000000E+00 -4.6993232637480E-01  5.2261195076136E-01
   157  1.5600000000000E+00 -4.4019633529084E-01  4.5988936540081E-01
   158  1.5700000000000E+00 -4.0988908520559E-01  3.9780008136402E-01
   159  1.5800000000000E+00 -3.7918750739968E-01  3.3660394446849E-01
   160  1.5900000000000E+00 -3.4826669842778E-01  2.7655390053222E-01
   161  1.6000000000000E+00 -3.1729885741007E-01  2.1789448172682E-01
   162  1.6100000000000E+00 -2.8645225031190E-01  1.6086034649955E-01
   163  1.6200000000000E+00 -2.5589020811218E-01  1.0567488274656E-01
   164  1.6300000000000E+00 -2.2577016551881E-01  5.2548883515031E-02
   165  1.6400000000000E+00 -1.9624274660162E-01  1.6793040438611E-03
   166  1.6500000000000E+00 -1.6745090338081E-01 -4.6751891577016E-02
   167  1.6600000000000E+00 -1.3952911303466E-01 -9.2578786435291E-02
   168  1.6700000000000E+00 -1.1260263897718E-01 -1.3565246245984E-01
   169  1.6800000000000E+00 -8.6786860606620E-02 -1.7584184135566E-01
   170  1.6900000000000E+00 -6.2186676043209E-02 -2.1303440918016E-01
   171  1.7000000000000E+00 -3.8895981662267E-02 -2.4713681970444E-01
   172  1.7100000000000E+00 -1.6997231690344E-02 -2.7807537251000E-01
   173  1.7200000000000E+00  3.4389194281420E-03 -3.0579636260746E-01
   174  1.7300000000000E+00  2.2353889765174E-02 -3.3026629922189E-01
   175  1.7400000000000E+00  3.9701356208382E-02 -3.5147199226500E-01
   176  1.7500000000000E+00  5.5447353424786E-02 -3.6942050601023E-01
   177  1.7600000000000E+00  6.9570285147094E-02 -3.8413898019796E-01
   178  1.7700000000000E+00  8.2060846278321E-02 -3.9567431384230E-01
   179  1.7800000000000E+00  9.2921867052702E-02 -4.0409274829054E-01
   180  1.7900000000000E+00  1.0216798773612E-01 -4.0947904118986E-01
   181  1.8000000000000E+00  1.0982517346089E-01 -4.1193527110949E-01
   182  1.8100000000000E+00  1.1593022425633E-01 -4.1157978974789E-01
   183  1.8200000000000E+00  1.2053028828269E-01 -4.0854633056837E-01
   184  1.8300000000000E+00  1.2368229535419E-01 -4.0298298413042E-01
   185  1.8400000000000E+00  1.2545232598261E-01 -3.9505108452033E-01
   186  1.8500000000000E+00  1.2591491880902E-01 -3.8492400794361E-01
   187  1.8600000000000E+00  1.2515232153493E-01 -3.7278589146368E-01
   188  1.8700000000000E+00  1.2325369090617E-01 -3.5883028059920E-01
   189  1.8800000000000E+00  1.2031424761260E-01 -3.4325871484791E-01
   190  1.8900000000000E+00  1.1643439226789E-01 -3.2627926061877E-01
   191  1.9000000000000E+00  1.1171878889224E-01 -3.0810500140517E-01
   192  1.9100000000000E+00  1.0627542253573E-01 -2.8895249532038E-01
   193  1.9200000000000E+00  1.0021463784875E-01 -2.6904021033501E-01
   194  1.9300000000000E+00  9.3648165526309E-02 -2.4858694770704E-01
   195  1.9400000000000E+00  8.6688143626890E-02 -2.2781026417566E-01
   196  1.9500000000000E+00  7.9446140788676E-02 -2.0692490349741E-01
   197  1.9600000000000E+00  7.2032188345226E-02 -1.8614124784792E-01
   198  1.9700000000000E+00  6.4553835125793E-02 -1.6566380832318E-01
   199  1.9800000000000E+00  5.7115166535326E-02 -1.4568968061361E-01
   200  1.9900000000000E+00  4.9816051557278E-02 -1.2640730731147E-01
   201  2.0000000000000E+00  4.2751082063457E-02 -1.0799485709804E-01
   202  2.0100000000000E+00  3.6007190239482E-02 -9.0616914311073E-02
   203  2.0200000000000E+00  2.9658643302894E-02 -7.4417803713578E-02
   204  2.0300000000000E+00  2.3780420473248E-02 -5.9538641228384E-02
   205  2.0400000000000E+00  1.8442974463327E-02 -4.6110389676568E-02
   206  2.0500000000000E+00  1.3706522223135E-02 -3.4246327240448E-02
   207  2.0600000000000E+00  9.6216412772017E-03 -2.4042670462328E-02
   208  2.0700000000000E+00  6.2286377155608E-03 -1.5577633508011E-02
   209  2.0800000000000E+00  3.5584850896792E-03 -8.9141849901624E-03
   210  2.0900000000000E+00  1.6196421916546E-03 -4.0668378959253E-03
   211  2.1000000000000E+00  4.5029537970141E-04 -1.1342602781736E-03
   212  2.1100000000000E+00  1.4676172772677E-05 -3.6979379631713E-05
   213  2.1200000000000E+00 -1.7305622356737E-05  4.3858123954523E-05
   214  2.1300000000000E+00  8.5593358988691E-06 -2.1623899672900E-05
   215  2.14 -0.  0.
   216  2.15 -0.  0.
   217  2.16 -0.  0.
   218  2.17  0.  0.
   219  2.18  0.  0.
   220  2.19  0.  0.
   221  2.20  0.  0.
   222  2.21  0.  0.
   223  2.22  0.  0.
   224  2.23  0.  0.
   225  2.24  0.  0.
   226  2.25  0.  0.
   227  2.26  0.  0.
   228  2.27  0.  0.
   229  2.28  0.  0.
   230  2.29  0.  0.
   231  2.30  0.  0.
   232  2.31  0.  0.
   233  2.32  0.  0.
   234  2.33  0.  0.
   235  2.34  0.  0.
   236  2.35  0.  0.
   237  2.36  0.  0.
   238  2.37  0.  0.
   239  2.38  0.  0.
   240  2.39  0.  0.
   241  2.40  0.  0.
   242  2.41  0.  0.
   243  2.42  0.  0.
   244  2.43  0.  0.
   245  2.44  0.  0.
   246  2.45  0.  0.
   247  2.46  0.  0.
   248  2.47  0.  0.
   249  2.48  0.  0.
   250  2.49  0.  0.
   251  2.50  0.  0.
   252  2.51  0.  0.
   253  2.52  0.  0.
   254  2.53  0.  0.
   255  2.54  0.  0.
   256  2.55  0.  0.
   257  2.56  0.  0.
   258  2.57  0.  0.
   259  2.58  0.  0.
   260  2.59  0.  0.
   261  2.60  0.  0.
   262  2.61  0.  0.
   263  2.62  0.  0.
   264  2.63  0.  0.
   265  2.64  0.  0.
   266  2.65  0.  0.
   267  2.66  0.  0.
   268  2.67  0.  0.
   269  2.68  0.  0.
   270  2.69  0.  0.
   271  2.70  0.  0.
   272  2.71  0.  0.
   273  2.72  0.  0.
   274  2.73  0.  0.
   275  2.74  0.  0.
   276  2.75  0.  0.
   277  2.76  0.  0.
   278  2.77  0.  0.
   279  2.78  0.  0.
   280  2.79  0.  0.
   281  2.80  0.  0.
   282  2.81  0.  0.
   283  2.82  0.  0.
   284  2.83  0.  0.
   285  2.84  0.  0.
   286  2.85  0.  0.
   287  2.86  0.  0.
   288  2.87  0.  0.
   289  2.88  0.  0.
   290  2.89  0.  0.
   291  2.90  0.  0.
   292  2.91  0.  0.
   293  2.92  0.  0.
   294  2.93  0.  0.
   295  2.94  0.  0.
   296  2.95  0.  0.
   297  2.96  0.  0.
   298  2.97  0.  0.
   299  2.98  0.  0.
   300  2.99  0.  0.
   301  3.00  0.  0.
   302  3.01  0.  0.
   303  3.02  0.  0.
   304  3.03  0.  0.
   305  3.04  0.  0.
   306  3.05  0.  0.
   307  3.06  0.  0.
   308  3.07  0.  0.
   309  3.08  0.  0.
   310  3.09  0.  0.
   311  3.10  0.  0.
   312  3.11  0.  0.
   313  3.12  0.  0.
   314  3.13  0.  0.
   315  3.14  0.  0.
   316  3.15  0.  0.
   317  3.16  0.  0.
   318  3.17  0.  0.
   319  3.18  0.  0.
   320  3.19  0.  0.
   321  3.20  0.  0.
   322  3.21  0.  0.
   323  3.22  0.  0.
   324  3.23  0.  0.
   325  3.24  0.  0.
   326  3.25  0.  0.
   327  3.26  0.  0.
   328  3.27  0.  0.
   329  3.28  0.  0.
   330  3.29  0.  0.
   331  3.30  0.  0.
   332  3.31  0.  0.
   333  3.32  0.  0.
   334  3.33  0.  0.
   335  3.34  0.  0.
   336  3.35  0.  0.
   337  3.36  0.  0.
   338  3.37  0.  0.
   339  3.38  0.  0.
   340  3.39  0.  0.
   341  3.40  0.  0.
   342  3.41  0.  0.
   343  3.42  0.  0.
   344  3.43  0.  0.
   345  3.44  0.  0.
   346  3.45  0.  0.
   347  3.46  0.  0.
   348  3.47  0.  0.
   349  3.48  0.  0.
   350  3.49  0.  0.
   351  3.50  0.  0.
   352  3.51  0.  0.
   353  3.52  0.  0.
   354  3.53  0.  0.
   355  3.54  0.  0.
   356  3.55  0.  0.
   357  3.56  0.  0.
   358  3.57  0.  0.
   359  3.58  0.  0.
   360  3.59  0.  0.
   361  3.60  0.  0.
   362  3.61  0.  0.
   363  3.62  0.  0.
   364  3.63  0.  0.
   365  3.64  0.  0.
   366  3.65  0.  0.
   367  3.66  0.  0.
   368  3.67  0.  0.
   369  3.68  0.  0.
   370  3.69  0.  0.
   371  3.70  0.  0.
   372  3.71  0.  0.
   373  3.72  0.  0.
   374  3.73  0.  0.
   375  3.74  0.  0.
   376  3.75  0.  0.
   377  3.76  0.  0.
   378  3.77  0.  0.
   379  3.78  0.  0.
   380  3.79  0.  0.
   381  3.80  0.  0.
   382  3.81  0.  0.
   383  3.82  0.  0.
   384  3.83  0.  0.
   385  3.84  0.  0.
   386  3.85  0.  0.
   387  3.86  0.  0.
   388  3.87  0.  0.
   389  3.88  0.  0.
   390  3.89  0.  0.
   391  3.90  0.  0.
   392  3.91  0.  0.
   393  3.92  0.  0.
   394  3.93  0.  0.
   395  3.94  0.  0.
   396  3.95  0.  0.
   397  3.96  0.  0.
   398  3.97  0.  0.
   399  3.98  0.  0.
   400  3.99  0.  0.
   401  4.00  0.  0.
   402  4.01  0.  0.
   403  4.02  0.  0.
   404  4.03  0.  0.
   405  4.04  0.  0.
   406  4.05  0.  0.
   407  4.06  0.  0.
   408  4.07  0.  0.
   409  4.08  0.  0.
   410  4.09  0.  0.
   411  4.10  0.  0.
   412  4.11  0.  0.
   413  4.12  0.  0.
   414  4.13  0.  0.
   415  4.14  0.  0.
   416  4.15  0.  0.
   417  4.16  0.  0.
   418  4.17  0.  0.
   419  4.18  0.  0.
   420  4.19  0.  0.
   421  4.20  0.  0.
   422  4.21  0.  0.
   423  4.22  0.  0.
   424  4.23  0.  0.
   425  4.24  0.  0.
   426  4.25  0.  0.
   427  4.26  0.  0.
   428  4.27  0.  0.
   429  4.28  0.  0.
   430  4.29  0.  0.
   431  4.30  0.  0.
   432  4.31  0.  0.
   433  4.32  0.  0.
   434  4.33  0.  0.
   435  4.34  0.  0.
   436  4.35  0.  0.
   437  4.36  0.  0.
   438  4.37  0.  0.
   439  4.38  0.  0.
   440  4.39  0.  0.
   441  4.40  0.  0.
   442  4.41  0.  0.
   443  4.42  0.  0.
   444  4.43  0.  0.
   445  4.44  0.  0.
   446  4.45  0.  0.
   447  4.46  0.  0.
   448  4.47  0.  0.
   449  4.48  0.  0.
   450  4.49  0.  0.
   451  4.50  0.  0.
   452  4.51  0.  0.
   453  4.52  0.  0.
   454  4.53  0.  0.
   455  4.54  0.  0.
   456  4.55  0.  0.
   457  4.56  0.  0.
   458  4.57  0.  0.
   459  4.58  0.  0.
   460  4.59  0.  0.
   461  4.60  0.  0.
   462  4.61  0.  0.
   463  4.62  0.  0.
   464  4.63  0.  0.
   465  4.64  0.  0.
   466  4.65  0.  0.
   467  4.66  0.  0.
   468  4.67  0.  0.
   469  4.68  0.  0.
   470  4.69  0.  0.
   471  4.70  0.  0.
   472  4.71  0.  0.
   473  4.72  0.  0.
   474  4.73  0.  0.
   475  4.74  0.  0.
   476  4.75  0.  0.
   477  4.76  0.  0.
   478  4.77  0.  0.
   479  4.78  0.  0.
   480  4.79  0.  0.
   481  4.80  0.  0.
   482  4.81  0.  0.
   483  4.82  0.  0.
   484  4.83  0.  0.
   485  4.84  0.  0.
   486  4.85  0.  0.
   487  4.86  0.  0.
   488  4.87  0.  0.
   489  4.88  0.  0.
   490  4.89  0.  0.
   491  4.90  0.  0.
   492  4.91  0.  0.
   493  4.92  0.  0.
   494  4.93  0.  0.
   495  4.94  0.  0.
   496  4.95  0.  0.
   497  4.96  0.  0.
   498  4.97  0.  0.
   499  4.98  0.  0.
   500  4.99  0.  0.
   501  5.00  0.  0.
   502  5.01  0.  0.
   503  5.02  0.  0.
   504  5.03  0.  0.
   505  5.04  0.  0.
   506  5.05  0.  0.
   507  5.06  0.  0.
   508  5.07  0.  0.
   509  5.08  0.  0.
   510  5.09  0.  0.
   511  5.10  0.  0.
   512  5.11  0.  0.
   513  5.12  0.  0.
   514  5.13  0.  0.
   515  5.14  0.  0.
   516  5.15  0.  0.
   517  5.16  0.  0.
   518  5.17  0.  0.
   519  5.18  0.  0.
   520  5.19  0.  0.
   521  5.20  0.  0.
   522  5.21  0.  0.
   523  5.22  0.  0.
   524  5.23  0.  0.
   525  5.24  0.  0.
   526  5.25  0.  0.
   527  5.26  0.  0.
   528  5.27  0.  0.
   529  5.28  0.  0.
   530  5.29  0.  0.
   531  5.30  0.  0.
   532  5.31  0.  0.
   533  5.32  0.  0.
   534  5.33  0.  0.
   535  5.34  0.  0.
   536  5.35  0.  0.
   537  5.36  0.  0.
   538  5.37  0.  0.
   539  5.38  0.  0.
   540  5.39  0.  0.
   541  5.40  0.  0.
   542  5.41  0.  0.
   543  5.42  0.  0.
   544  5.43  0.  0.
   545  5.44  0.  0.
   546  5.45  0.  0.
   547  5.46  0.  0.
   548  5.47  0.  0.
   549  5.48  0.  0.
   550  5.49  0.  0.
   551  5.50  0.  0.
   552  5.51  0.  0.
   553  5.52  0.  0.
   554  5.53  0.  0.
   555  5.54  0.  0.
   556  5.55  0.  0.
   557  5.56  0.  0.
   558  5.57  0.  0.
   559  5.58  0.  0.
   560  5.59  0.  0.
   561  5.60  0.  0.
   562  5.61  0.  0.
   563  5.62  0.  0.
   564  5.63  0.  0.
   565  5.64  0.  0.
   566  5.65  0.  0.
   567  5.66  0.  0.
   568  5.67  0.  0.
   569  5.68  0.  0.
   570  5.69  0.  0.
   571  5.70  0.  0.
   572  5.71  0.  0.
   573  5.72  0.  0.
   574  5.73  0.  0.
   575  5.74  0.  0.
   576  5.75  0.  0.
   577  5.76  0.  0.
   578  5.77  0.  0.
   579  5.78  0.  0.
   580  5.79  0.  0.
   581  5.80  0.  0.
   582  5.81  0.  0.
   583  5.82  0.  0.
   584  5.83  0.  0.
   585  5.84  0.  0.
   586  5.85  0.  0.
   587  5.86  0.  0.
   588  5.87  0.  0.
   589  5.88  0.  0.
   590  5.89  0.  0.
   591  5.90  0.  0.
   592  5.91  0.  0.
   593  5.92  0.  0.
   594  5.93  0.  0.
   595  5.94  0.  0.
   596  5.95  0.  0.
   597  5.96  0.  0.
   598  5.97  0.  0.
   599  5.98  0.  0.
   600  5.99  0.  0.
   1                         4.7296415558355E+00  4.8455604780623E-01
     1  0.0000000000000E+00  6.6393272823984E-11 -1.1819771550403E-10
     2  1.0000000000000E-02  9.0995535275385E-04 -5.3255100565682E-04
     3  2.0000000000000E-02  3.6374302984947E-03 -2.1278710552228E-03
     4  3.0000000000000E-02  8.1752588648361E-03 -4.7789709544306E-03
     5  4.0000000000000E-02  1.4511522279266E-02 -8.4742343411529E-03
     6  5.0000000000000E-02  2.2629585616399E-02 -1.3197465901792E-02
     7  6.0000000000000E-02  3.2508148855436E-02 -1.8927958424605E-02
     8  7.0000000000000E-02  4.4121312101874E-02 -2.5640578246492E-02
     9  8.0000000000000E-02  5.7438654661104E-02 -3.3305868531575E-02
    10  9.0000000000000E-02  7.2425327588012E-02 -4.1890169708070E-02
    11  1.0000000000000E-01  8.9042159276490E-02 -5.1355756285640E-02
    12  1.1000000000000E-01  1.0724577359655E-01 -6.1660989179567E-02
    13  1.2000000000000E-01  1.2698872003486E-01 -7.2760482582093E-02
    14  1.3000000000000E-01  1.4821961524732E-01 -8.4605284345442E-02
    15  1.4000000000000E-01  1.7088329539052E-01 -9.7143068776716E-02
    16  1.5000000000000E-01  1.9492097856207E-01 -1.1031834069201E-01
    17  1.6000000000000E-01  2.2027043664904E-01 -1.2407264953662E-01
    18  1.7000000000000E-01  2.4686617585850E-01 -1.3834481235003E-01
    19  1.8000000000000E-01  2.7463962518478E-01 -1.5307114433870E-01
    20  1.9000000000000E-01  3.0351933205436E-01 -1.6818569581638E-01
    21  2.0000000000000E-01  3.3343116438187E-01 -1.8362049428060E-01
    22  2.1000000000000E-01  3.6429851826821E-01 -1.9930579041434E-01
    23  2.2000000000000E-01  3.9604253057509E-01 -2.1517030683367E-01
    24  2.3000000000000E-01  4.2858229561886E-01 -2.3114148844418E-01
    25  2.4000000000000E-01  4.6183508523930E-01 -2.4714575332040E-01
    26  2.5000000000000E-01  4.9571657151703E-01 -2.6310874308276E-01
    27  2.6000000000000E-01  5.3014105143443E-01 -2.7895557181380E-01
    28  2.7000000000000E-01  5.6502167280020E-01 -2.9461107262947E-01
    29  2.8000000000000E-01  6.0027066078567E-01 -3.1000004109969E-01
    30  2.9000000000000E-01  6.3579954445144E-01 -3.2504747479522E-01
    31  3.0000000000000E-01  6.7151938267546E-01 -3.3967880832200E-01
    32  3.1000000000000E-01  7.0734098892717E-01 -3.5382014329042E-01
    33  3.2000000000000E-01  7.4317515436707E-01 -3.6739847275155E-01
    34  3.3000000000000E-01  7.7893286878559E-01 -3.8034189971641E-01
    35  3.4000000000000E-01  8.1452553892951E-01 -3.9257984945411E-01
    36  3.5000000000000E-01  8.4986520379784E-01 -4.0404327534139E-01
    37  3.6000000000000E-01  8.8486474652091E-01 -4.1466485810621E-01
    38  3.7000000000000E-01  9.1943810246707E-01 -4.2437919837236E-01
    39  3.8000000000000E-01  9.5350046324913E-01 -4.3312300246882E-01
    40  3.9000000000000E-01  9.8696847632855E-01 -4.4083526151589E-01
    41  4.0000000000000E-01  1.0197604399378E+00 -4.4745742383971E-01
    42  4.1000000000000E-01  1.0517964930607E+00 -4.5293356079695E-01
    43  4.2000000000000E-01  1.0829988002273E+00 -4.5721052611175E-01
    44  4.3000000000000E-01  1.1132917308921E+00 -4.6023810883758E-01
    45  4.4000000000000E-01  1.1426020331736E+00 -4.6196918005705E-01
    46  4.5000000000000E-01  1.1708590017402E+00 -4.6235983342349E-01
    47  4.6000000000000E-01  1.1979946396284E+00 -4.6136951962937E-01
    48  4.7000000000000E-01  1.2239438137807E+00 -4.5896117485911E-01
    49  4.8000000000000E-01  1.2486444040848E+00 -4.5510134324767E-01
    50  4.9000000000000E-01  1.2720374456920E+00 -4.4976029332304E-01
    51  5.0000000000000E-01  1.2940672643815E+00 -4.4291212836077E-01
    52  5.1000000000000E-01  1.3146816047303E+00 -4.3453489052326E-01
    53  5.2000000000000E-01  1.3338317508335E+00 -4.2461065859691E-01
    54  5.3000000000000E-01  1.3514726393096E+00 -4.1312563907739E-01
    55  5.4000000000000E-01  1.3675629643092E+00 -4.0007025028929E-01
    56  5.5000000000000E-01  1.3820652742373E+00 -3.8543919916152E-01
    57  5.6000000000000E-01  1.3949460598814E+00 -3.6923155021674E-01
    58  5.7000000000000E-01  1.4061758336304E+00 -3.5145078627218E-01
    59  5.8000000000000E-01  1.4157291994586E+00 -3.3210486029282E-01
    60  5.9000000000000E-01  1.4235849133420E+00 -3.1120623778656E-01
    61  6.0000000000000E-01  1.4297259337702E+00 -2.8877192908676E-01
    62  6.1000000000000E-01  1.4341394620159E+00 -2.6482351083161E-01
    63  6.2000000000000E-01  1.4368169718279E+00 -2.3938713592243E-01
    64  6.3000000000000E-01  1.4377542282202E+00 -2.1249353122695E-01
    65  6.4000000000000E-01  1.4369512950409E+00 -1.8417798228814E-01
    66  6.5000000000000E-01  1.4344125310239E+00 -1.5448030430594E-01
    67  6.6000000000000E-01  1.4301465740451E+00 -1.2344479867875E-01
    68  6.7000000000000E-01  1.4241663133339E+00 -9.1120194424305E-02
    69  6.8000000000000E-01  1.4164888494241E+00 -5.7559573845098E-02
    70  6.9000000000000E-01  1.4071354416634E+00 -2.2820281863137E-02
    71  7.0000000000000E-01  1.3961314431481E+00  1.3036181478782E-02
    72  7.1000000000000E-01  1.3835062229944E+00  4.9944285766550E-02
    73  7.2000000000000E-01  1.3692930759132E+00  8.7834612534588E-02
    74  7.3000000000000E-01  1.3535291191127E+00  1.2663401536613E-01
    75  7.4000000000000E-01  1.3362551766165E+00  1.6626579786396E-01
    76  7.5000000000000E-01  1.3175156511483E+00  2.0664990945222E-01
    77  7.6000000000000E-01  1.2973583838071E+00  2.4770315883160E-01
    78  7.7000000000000E-01  1.2758345018249E+00  2.8933944476593E-01
    79  7.8000000000000E-01  1.2529982547767E+00  3.3147000372795E-01
    80  7.9000000000000E-01  1.2289068396835E+00  3.7400367377852E-01
    81  8.0000000000000E-01  1.2036202155269E+00  4.1684717389834E-01
    82  8.1000000000000E-01  1.1772009077698E+00  4.5990539783570E-01
    83  8.2000000000000E-01  1.1497138035480E+00  5.0308172138098E-01
    84  8.3000000000000E-01  1.1212259382741E+00  5.4627832182874E-01
    85  8.4000000000000E-01  1.0918062744602E+00  5.8939650824528E-01
    86  8.5000000000000E-01  1.0615254736341E+00  6.3233706102351E-01
    87  8.6000000000000E-01  1.0304556622840E+00  6.7500057908110E-01
    88  8.7000000000000E-01  9.9867019282184E-01  7.1728783294324E-01
    89  8.8000000000000E-01  9.6624340060653E-01  7.5910012184972E-01
    90  8.9000000000000E-01  9.3325035811057E-01  8.0033963293915E-01
    91  9.0000000000000E-01  8.9976662735072E-01  8.4090980049244E-01
    92  9.1000000000000E-01  8.6586801173047E-01  8.8071566316391E-01