Br    ONCVPSP-4.0.1  r_core=   2.10032   2.10032   2.20328
     35.0000      7.0000      230118    zatom,zion,pspd
     8       2   2     4   600     0    pspcod,pspxc,lmax,lloc,mmax,r2well
  5.99000000  8.00000000  0.00000000    rchrg fchrg qchrg
     2     2     2     0     0    nproj
     1     1           extension_switch
   0                         5.6040742386614E+00  6.3789280546122E-01
     1  0.0000000000000E+00  1.1678791267400E-10 -3.3000319143994E-10
     2  1.0000000000000E-02  3.3972665774395E-02 -3.2879810639700E-03
     3  2.0000000000000E-02  6.7946968254526E-02 -6.6350635083310E-03
     4  3.0000000000000E-02  1.0192425382821E-01 -1.0099523235148E-02
     5  4.0000000000000E-02  1.3590529131932E-01 -1.3737993736901E-02
     6  5.0000000000000E-02  1.6988999085561E-01 -1.7604666174827E-02
     7  6.0000000000000E-02  2.0387713183295E-01 -2.1750514761153E-02
     8  7.0000000000000E-02  2.3786410286974E-01 -2.6222555489209E-02
     9  8.0000000000000E-02  2.7184665652869E-01 -3.1063145925365E-02
    10  9.0000000000000E-02  3.0581868143923E-01 -3.6309333370341E-02
    11  1.0000000000000E-01  3.3977199428422E-01 -4.1992258218388E-02
    12  1.1000000000000E-01  3.7369615392096E-01 -4.8136618795962E-02
    13  1.2000000000000E-01  4.0757829969065E-01 -5.4760203351998E-02
    14  1.3000000000000E-01  4.4140301573434E-01 -6.1873494205724E-02
    15  1.4000000000000E-01  4.7515222287940E-01 -6.9479348341450E-02
    16  1.5000000000000E-01  5.0880509939119E-01 -7.7572757980170E-02
    17  1.6000000000000E-01  5.4233803160220E-01 -8.6140693862090E-02
    18  1.7000000000000E-01  5.7572459513829E-01 -9.5162033150508E-02
    19  1.8000000000000E-01  6.0893556716203E-01 -1.0460757302352E-01
    20  1.9000000000000E-01  6.4193896974850E-01 -1.1444013016426E-01
    21  2.0000000000000E-01  6.7470014420312E-01 -1.2461472550085E-01
    22  2.1000000000000E-01  7.0718185582643E-01 -1.3507885269302E-01
    23  2.2000000000000E-01  7.3934442833074E-01 -1.4577282802063E-01
    24  2.3000000000000E-01  7.7114590682021E-01 -1.5663021850988E-01
    25  2.4000000000000E-01  8.0254224796346E-01 -1.6757834434245E-01
    26  2.5000000000000E-01  8.3348753571746E-01 -1.7853885083998E-01
    27  2.6000000000000E-01  8.6393422070684E-01 -1.8942834460822E-01
    28  2.7000000000000E-01  8.9383338112619E-01 -2.0015908776870E-01
    29  2.8000000000000E-01  9.2313500281633E-01 -2.1063974360809E-01
    30  2.9000000000000E-01  9.5178827597166E-01 -2.2077616644166E-01
    31  3.0000000000000E-01  9.7974190576567E-01 -2.3047222802377E-01
    32  3.1000000000000E-01  1.0069444340382E+00 -2.3963067244879E-01
    33  3.2000000000000E-01  1.0333445690715E+00 -2.4815399117558E-01
    34  3.3000000000000E-01  1.0588915203944E+00 -2.5594530957932E-01
    35  3.4000000000000E-01  1.0835353354961E+00 -2.6290927629028E-01
    36  3.5000000000000E-01  1.1072272353023E+00 -2.6895294652033E-01
    37  3.6000000000000E-01  1.1299199452689E+00 -2.7398665060622E-01
    38  3.7000000000000E-01  1.1515680189836E+00 -2.7792483911376E-01
    39  3.8000000000000E-01  1.1721281512246E+00 -2.8068689604808E-01
    40  3.9000000000000E-01  1.1915594775235E+00 -2.8219791200036E-01
    41  4.0000000000000E-01  1.2098238573980E+00 -2.8238940942882E-01
    42  4.1000000000000E-01  1.2268861385721E+00 -2.8120001271732E-01
    43  4.2000000000000E-01  1.2427143996758E+00 -2.7857605617499E-01
    44  4.3000000000000E-01  1.2572801691193E+00 -2.7447212373026E-01
    45  4.4000000000000E-01  1.2705586180586E+00 -2.6885151472631E-01
    46  4.5000000000000E-01  1.2825287256177E+00 -2.6168663093687E-01
    47  4.6000000000000E-01  1.2931734147912E+00 -2.5295928068424E-01
    48  4.7000000000000E-01  1.3024796577347E+00 -2.4266089674821E-01
    49  4.8000000000000E-01  1.3104385494417E+00 -2.3079266559777E-01
    50  4.9000000000000E-01  1.3170453491071E+00 -2.1736556634848E-01
    51  5.0000000000000E-01  1.3222994887921E+00 -2.0240031873907E-01
    52  5.1000000000000E-01  1.3262045493176E+00 -1.8592724032253E-01
    53  5.2000000000000E-01  1.3287682036306E+00 -1.6798601397074E-01
    54  5.3000000000000E-01  1.3300021282069E+00 -1.4862536768858E-01
    55  5.4000000000000E-01  1.3299218833586E+00 -1.2790266961506E-01
    56  5.5000000000000E-01  1.3285467636242E+00 -1.0588344194574E-01
    57  5.6000000000000E-01  1.3258996197076E+00 -8.2640798335249E-02
    58  5.7000000000000E-01  1.3220066537130E+00 -5.8254810121128E-02
    59  5.8000000000000E-01  1.3168971896847E+00 -3.2811807444446E-02
    60  5.9000000000000E-01  1.3106034217062E+00 -6.4036220194466E-03
    61  6.0000000000000E-01  1.3031601420326E+00  2.0873221081715E-02
    62  6.1000000000000E-01  1.2946044519324E+00  4.8918354719722E-02
    63  6.2000000000000E-01  1.2849754580830E+00  7.7628455676937E-02
    64  6.3000000000000E-01  1.2743139575160E+00  1.0689815658003E-01
    65  6.4000000000000E-01  1.2626621142174E+00  1.3662097469010E-01
    66  6.5000000000000E-01  1.2500631305795E+00  1.6669024828070E-01
    67  6.6000000000000E-01  1.2365609169528E+00  1.9700007120179E-01
    68  6.7000000000000E-01  1.2221997625693E+00  2.2744621619885E-01
    69  6.8000000000000E-01  1.2070240110989E+00  2.5792703762038E-01
    70  6.9000000000000E-01  1.1910777440585E+00  2.8834434430610E-01
    71  7.0000000000000E-01  1.1744044752169E+00  3.1860423369890E-01
    72  7.1000000000000E-01  1.1570468590357E+00  3.4861787856591E-01
    73  7.2000000000000E-01  1.1390464160456E+00  3.7830225814453E-01
    74  7.3000000000000E-01  1.1204432778938E+00  4.0758082604408E-01
    75  7.4000000000000E-01  1.1012759546013E+00  4.3638410782838E-01
    76  7.5000000000000E-01  1.0815811263496E+00  4.6465022187474E-01
    77  7.6000000000000E-01  1.0613934618696E+00  4.9232531784236E-01
    78  7.7000000000000E-01  1.0407454652384E+00  5.1936392788372E-01
    79  7.8000000000000E-01  1.0196673526036E+00  5.4572922658671E-01
    80  7.9000000000000E-01  9.9818696004984E-01  5.7139319653593E-01
    81  8.0000000000000E-01  9.7632968350476E-01  5.9633669732030E-01
    82  8.1000000000000E-01  9.5411845125481E-01  6.2054943678136E-01
    83  8.2000000000000E-01  9.3157372930251E-01  6.4402984428346E-01
    84  8.3000000000000E-01  9.0871355945846E-01  6.6678484678396E-01
    85  8.4000000000000E-01  8.8555362971869E-01  6.8882954947819E-01
    86  8.5000000000000E-01  8.6210737613909E-01  7.1018682378158E-01
    87  8.6000000000000E-01  8.3838611508475E-01  7.3088680637875E-01
    88  8.7000000000000E-01  8.1439920440779E-01  7.5096631400831E-01
    89  8.8000000000000E-01  7.9015423179474E-01  7.7046817955196E-01
    90  8.9000000000000E-01  7.6565722822783E-01  7.8944051584855E-01
    91  9.0000000000000E-01  7.4091290422612E-01  8.0793591444963E-01
    92  9.1000000000000E-01  7.1592490627571E-01  8.2601058726339E-01
    93  9.2000000000000E-01  6.9069609062511E-01  8.4372345969210E-01
    94  9.3000000000000E-01  6.6522881141605E-01  8.6113522444633E-01
    95  9.4000000000000E-01  6.3952521994223E-01  8.7830736571162E-01
    96  9.5000000000000E-01  6.1358757168204E-01  8.9530116374360E-01
    97  9.6000000000000E-01  5.8741853763735E-01  9.1217669027183E-01
    98  9.7000000000000E-01  5.6102151642981E-01  9.2899180529663E-01
    99  9.8000000000000E-01  5.3440094356122E-01  9.4580116596351E-01
   100  9.9000000000000E-01  5.0756259423473E-01  9.6265525819624E-01
   101  1.0000000000000E+00  4.8051387615994E-01  9.7959946165863E-01
   102  1.0100000000000E+00  4.5326410882782E-01  9.9667315839984E-01
   103  1.0200000000000E+00  4.2582478583954E-01  1.0139088952166E+00
   104  1.0300000000000E+00  3.9820981700676E-01  1.0313316093433E+00
   105  1.0400000000000E+00  3.7043574710871E-01  1.0489579265582E+00
   106  1.0500000000000E+00  3.4252194839171E-01  1.0667955401752E+00
   107  1.0600000000000E+00  3.1449078412838E-01  1.0848426786863E+00
   108  1.0700000000000E+00  2.8636774081425E-01  1.1030876690244E+00
   109  1.0800000000000E+00  2.5818152686728E-01  1.1215086015501E+00
   110  1.0900000000000E+00  2.2996413600712E-01  1.1400731019285E+00
   111  1.1000000000000E+00  2.0175087382449E-01  1.1587382140620E+00
   112  1.1100000000000E+00  1.7358034640211E-01  1.1774503971963E+00
   113  1.1200000000000E+00  1.4549441021588E-01  1.1961456392230E+00
   114  1.1300000000000E+00  1.1753808292245E-01  1.2147496870815E+00
   115  1.1400000000000E+00  8.9759415026665E-02  1.2331783940119E+00
   116  1.1500000000000E+00  6.2209322812239E-02  1.2513381822624E+00
   117  1.1600000000000E+00  3.4941383311462E-02  1.2691266186937E+00
   118  1.1700000000000E+00  8.0115924771006E-03  1.2864330995833E+00
   119  1.1800000000000E+00 -1.8521911897992E-02  1.3031396398126E+00
   120  1.1900000000000E+00 -4.4599160597902E-02  1.3191217605325E+00
   121  1.2000000000000E+00 -7.0158694465156E-02  1.3342494683656E+00
   122  1.2100000000000E+00 -9.5137934335420E-02  1.3483883182114E+00
   123  1.2200000000000E+00 -1.1947357649833E-01  1.3614005508102E+00
   124  1.2300000000000E+00 -1.4310201046320E-01  1.3731462953647E+00
   125  1.2400000000000E+00 -1.6595975554493E-01  1.3834848267667E+00
   126  1.2500000000000E+00 -1.8798391255020E-01  1.3922758662987E+00
   127  1.2600000000000E+00 -2.0911262664274E-01  1.3993809141126E+00
   128  1.2700000000000E+00 -2.2928555730051E-01  1.4046646013207E+00
   129  1.2800000000000E+00 -2.4844435114818E-01  1.4079960491794E+00
   130  1.2900000000000E+00 -2.6653311335801E-01  1.4092502226039E+00
   131  1.3000000000000E+00 -2.8349887326176E-01  1.4083092651349E+00
   132  1.3100000000000E+00 -2.9929203980634E-01  1.4050638024725E+00
   133  1.3200000000000E+00 -3.1386684251748E-01  1.3994142018166E+00
   134  1.3300000000000E+00 -3.2718175370831E-01  1.3912717744978E+00
   135  1.3400000000000E+00 -3.3919988778320E-01  1.3805599097393E+00
   136  1.3500000000000E+00 -3.4988937364118E-01  1.3672151278821E+00
   137  1.3600000000000E+00 -3.5922369637640E-01  1.3511880419940E+00
   138  1.3700000000000E+00 -3.6718200470308E-01  1.3324442174944E+00
   139  1.3800000000000E+00 -3.7374938079879E-01  1.3109649202352E+00
   140  1.3900000000000E+00 -3.7891706956029E-01  1.2867477443909E+00
   141  1.4000000000000E+00 -3.8268266459596E-01  1.2598071125041E+00
   142  1.4100000000000E+00 -3.8505024863911E-01  1.2301746411214E+00
   143  1.4200000000000E+00 -3.8603048644799E-01  1.1978993665938E+00
   144  1.4300000000000E+00 -3.8564066866653E-01  1.1630478268438E+00
   145  1.4400000000000E+00 -3.8390470554120E-01  1.1257039961553E+00
   146  1.4500000000000E+00 -3.8085306982737E-01  1.0859690713507E+00
   147  1.4600000000000E+00 -3.7652268866650E-01  1.0439611090502E+00
   148  1.4700000000000E+00 -3.7095678466820E-01  9.9981451505317E-01
   149  1.4800000000000E+00 -3.6420466688669E-01  9.5367938823098E-01
   150  1.4900000000000E+00 -3.5632147283481E-01  9.0572072266226E-01
   151  1.5000000000000E+00 -3.4736786312390E-01  8.5611747305457E-01
   152  1.5100000000000E+00 -3.3740967075356E-01  8.0506148978104E-01
   153  1.5200000000000E+00 -3.2651750749559E-01  7.5275633109418E-01
   154  1.5300000000000E+00 -3.1476633021739E-01  6.9941596125574E-01
   155  1.5400000000000E+00 -3.0223497036877E-01  6.4526334442751E-01
   156  1.5500000000000E+00 -2.8900563020753E-01  5.9052894519202E-01
   157  1.5600000000000E+00 -2.7516334966099E-01  5.3544914750672E-01
   158  1.5700000000000E+00 -2.6079544800985E-01  4.8026460472960E-01
   159  1.5800000000000E+00 -2.4599094483276E-01  4.2521853407822E-01
   160  1.5900000000000E+00 -2.3083996486443E-01  3.7055496949392E-01
   161  1.6000000000000E+00 -2.1543313159330E-01  3.1651698736959E-01
   162  1.6100000000000E+00 -1.9986095455564E-01  2.6334491995872E-01
   163  1.6200000000000E+00 -1.8421321536964E-01  2.1127457151086E-01
   164  1.6300000000000E+00 -1.6857835759467E-01  1.6053545227187E-01
   165  1.6400000000000E+00 -1.5304288549709E-01  1.1134904544395E-01
   166  1.6500000000000E+00 -1.3769077675398E-01  6.3927122021267E-02
   167  1.6600000000000E+00 -1.2260291403086E-01  1.8470118101396E-02
   168  1.6700000000000E+00 -1.0785654022913E-01 -2.4834411175158E-02
   169  1.6800000000000E+00 -9.3524742014816E-02 -6.5813247483875E-02
   170  1.6900000000000E+00 -7.9675966013699E-02 -1.0430886210343E-01
   171  1.7000000000000E+00 -6.6373571791066E-02 -1.4018065358404E-01
   172  1.7100000000000E+00 -5.3675425429397E-02 -1.7330605918499E-01
   173  1.7200000000000E+00 -4.1633537176882E-02 -2.0358153000889E-01
   174  1.7300000000000E+00 -3.0293746266842E-02 -2.3092336089480E-01
   175  1.7400000000000E+00 -1.9695455606248E-02 -2.5526836735217E-01
   176  1.7500000000000E+00 -9.8714186040991E-03 -2.7657440311133E-01
   177  1.7600000000000E+00 -8.4757996134686E-04 -2.9482071322347E-01
   178  1.7700000000000E+00  7.3570282225915E-03 -3.1000811904975E-01
   179  1.7800000000000E+00  1.4730334151692E-02 -3.2215903292480E-01
   180  1.7900000000000E+00  2.1267217457476E-02 -3.3131730174915E-01
   181  1.8000000000000E+00  2.6969443852837E-02 -3.3754788024676E-01
   182  1.8100000000000E+00  3.1845543937951E-02 -3.4093633621033E-01
   183  1.8200000000000E+00  3.5910637156766E-02 -3.4158819095143E-01
   184  1.8300000000000E+00  3.9186202547578E-02 -3.3962810046819E-01
   185  1.8400000000000E+00  4.1699797886678E-02 -3.3519888157778E-01
   186  1.8500000000000E+00  4.3484725146929E-02 -3.2846036804668E-01
   187  1.8600000000000E+00  4.4579482798152E-02 -3.1958729782104E-01
   188  1.8700000000000E+00  4.5027143296223E-02 -3.0876694468543E-01
   189  1.8800000000000E+00  4.4874837516251E-02 -2.9619738350525E-01
   190  1.8900000000000E+00  4.4173258309938E-02 -2.8208592245643E-01
   191  1.9000000000000E+00  4.2976126092634E-02 -2.6664740317158E-01
   192  1.9100000000000E+00  4.1339633096912E-02 -2.5010244430750E-01
   193  1.9200000000000E+00  3.9321869221884E-02 -2.3267563334626E-01
   194  1.9300000000000E+00  3.6982234396909E-02 -2.1459368139503E-01
   195  1.9400000000000E+00  3.4380842670435E-02 -1.9608355692826E-01
   196  1.9500000000000E+00  3.1577923254287E-02 -1.7737061433572E-01
   197  1.9600000000000E+00  2.8633230081976E-02 -1.5867675063481E-01
   198  1.9700000000000E+00  2.5605405791634E-02 -1.4021844225264E-01
   199  1.9800000000000E+00  2.2551536230828E-02 -1.2220531508936E-01
   200  1.9900000000000E+00  1.9526421737876E-02 -1.0483794329469E-01
   201  2.0000000000000E+00  1.6580534644431E-02 -8.8302020658134E-02
   202  2.0100000000000E+00  1.3755484870306E-02 -7.2755618699938E-02
   203  2.0200000000000E+00  1.1096823822313E-02 -5.8364445332906E-02
   204  2.0300000000000E+00  8.6492083338690E-03 -4.5288379318189E-02
   205  2.0400000000000E+00  6.4515573703518E-03 -3.3667966275149E-02
   206  2.0500000000000E+00  4.5376490653103E-03 -2.3625942257613E-02
   207  2.0600000000000E+00  2.9356480521948E-03 -1.5265825799766E-02
   208  2.0700000000000E+00  1.6684786084932E-03 -8.6744674806474E-03
   209  2.0800000000000E+00  7.4699918462811E-04 -3.8867057020294E-03
   210  2.0900000000000E+00  1.9846371959498E-04 -1.0346450235064E-03
   211  2.1000000000000E+00  2.1010895968287E-06 -1.1135306837260E-05
   212  2.1100000000000E+00 -6.9504779575454E-06  3.6301901149269E-05
   213  2.1200000000000E+00  4.0360612192284E-06 -2.1040881982328E-05
   214  2.13 -0.  0.
   215  2.14  0. -0.
   216  2.15  0. -0.
   217  2.16  0.  0.
   218  2.17  0.  0.
   219  2.18  0.  0.
   220  2.19  0.  0.
   221  2.20  0.  0.
   222  2.21  0.  0.
   223  2.22  0.  0.
   224  2.23  0.  0.
   225  2.24  0.  0.
   226  2.25  0.  0.
   227  2.26  0.  0.
   228  2.27  0.  0.
   229  2.28  0.  0.
   230  2.29  0.  0.
   231  2.30  0.  0.
   232  2.31  0.  0.
   233  2.32  0.  0.
   234  2.33  0.  0.
   235  2.34  0.  0.
   236  2.35  0.  0.
   237  2.36  0.  0.
   238  2.37  0.  0.
   239  2.38  0.  0.
   240  2.39  0.  0.
   241  2.40  0.  0.
   242  2.41  0.  0.
   243  2.42  0.  0.
   244  2.43  0.  0.
   245  2.44  0.  0.
   246  2.45  0.  0.
   247  2.46  0.  0.
   248  2.47  0.  0.
   249  2.48  0.  0.
   250  2.49  0.  0.
   251  2.50  0.  0.
   252  2.51  0.  0.
   253  2.52  0.  0.
   254  2.53  0.  0.
   255  2.54  0.  0.
   256  2.55  0.  0.
   257  2.56  0.  0.
   258  2.57  0.  0.
   259  2.58  0.  0.
   260  2.59  0.  0.
   261  2.60  0.  0.
   262  2.61  0.  0.
   263  2.62  0.  0.
   264  2.63  0.  0.
   265  2.64  0.  0.
   266  2.65  0.  0.
   267  2.66  0.  0.
   268  2.67  0.  0.
   269  2.68  0.  0.
   270  2.69  0.  0.
   271  2.70  0.  0.
   272  2.71  0.  0.
   273  2.72  0.  0.
   274  2.73  0.  0.
   275  2.74  0.  0.
   276  2.75  0.  0.
   277  2.76  0.  0.
   278  2.77  0.  0.
   279  2.78  0.  0.
   280  2.79  0.  0.
   281  2.80  0.  0.
   282  2.81  0.  0.
   283  2.82  0.  0.
   284  2.83  0.  0.
   285  2.84  0.  0.
   286  2.85  0.  0.
   287  2.86  0.  0.
   288  2.87  0.  0.
   289  2.88  0.  0.
   290  2.89  0.  0.
   291  2.90  0.  0.
   292  2.91  0.  0.
   293  2.92  0.  0.
   294  2.93  0.  0.
   295  2.94  0.  0.
   296  2.95  0.  0.
   297  2.96  0.  0.
   298  2.97  0.  0.
   299  2.98  0.  0.
   300  2.99  0.  0.
   301  3.00  0.  0.
   302  3.01  0.  0.
   303  3.02  0.  0.
   304  3.03  0.  0.
   305  3.04  0.  0.
   306  3.05  0.  0.
   307  3.06  0.  0.
   308  3.07  0.  0.
   309  3.08  0.  0.
   310  3.09  0.  0.
   311  3.10  0.  0.
   312  3.11  0.  0.
   313  3.12  0.  0.
   314  3.13  0.  0.
   315  3.14  0.  0.
   316  3.15  0.  0.
   317  3.16  0.  0.
   318  3.17  0.  0.
   319  3.18  0.  0.
   320  3.19  0.  0.
   321  3.20  0.  0.
   322  3.21  0.  0.
   323  3.22  0.  0.
   324  3.23  0.  0.
   325  3.24  0.  0.
   326  3.25  0.  0.
   327  3.26  0.  0.
   328  3.27  0.  0.
   329  3.28  0.  0.
   330  3.29  0.  0.
   331  3.30  0.  0.
   332  3.31  0.  0.
   333  3.32  0.  0.
   334  3.33  0.  0.
   335  3.34  0.  0.
   336  3.35  0.  0.
   337  3.36  0.  0.
   338  3.37  0.  0.
   339  3.38  0.  0.
   340  3.39  0.  0.
   341  3.40  0.  0.
   342  3.41  0.  0.
   343  3.42  0.  0.
   344  3.43  0.  0.
   345  3.44  0.  0.
   346  3.45  0.  0.
   347  3.46  0.  0.
   348  3.47  0.  0.
   349  3.48  0.  0.
   350  3.49  0.  0.
   351  3.50  0.  0.
   352  3.51  0.  0.
   353  3.52  0.  0.
   354  3.53  0.  0.
   355  3.54  0.  0.
   356  3.55  0.  0.
   357  3.56  0.  0.
   358  3.57  0.  0.
   359  3.58  0.  0.
   360  3.59  0.  0.
   361  3.60  0.  0.
   362  3.61  0.  0.
   363  3.62  0.  0.
   364  3.63  0.  0.
   365  3.64  0.  0.
   366  3.65  0.  0.
   367  3.66  0.  0.
   368  3.67  0.  0.
   369  3.68  0.  0.
   370  3.69  0.  0.
   371  3.70  0.  0.
   372  3.71  0.  0.
   373  3.72  0.  0.
   374  3.73  0.  0.
   375  3.74  0.  0.
   376  3.75  0.  0.
   377  3.76  0.  0.
   378  3.77  0.  0.
   379  3.78  0.  0.
   380  3.79  0.  0.
   381  3.80  0.  0.
   382  3.81  0.  0.
   383  3.82  0.  0.
   384  3.83  0.  0.
   385  3.84  0.  0.
   386  3.85  0.  0.
   387  3.86  0.  0.
   388  3.87  0.  0.
   389  3.88  0.  0.
   390  3.89  0.  0.
   391  3.90  0.  0.
   392  3.91  0.  0.
   393  3.92  0.  0.
   394  3.93  0.  0.
   395  3.94  0.  0.
   396  3.95  0.  0.
   397  3.96  0.  0.
   398  3.97  0.  0.
   399  3.98  0.  0.
   400  3.99  0.  0.
   401  4.00  0.  0.
   402  4.01  0.  0.
   403  4.02  0.  0.
   404  4.03  0.  0.
   405  4.04  0.  0.
   406  4.05  0.  0.
   407  4.06  0.  0.
   408  4.07  0.  0.
   409  4.08  0.  0.
   410  4.09  0.  0.
   411  4.10  0.  0.
   412  4.11  0.  0.
   413  4.12  0.  0.
   414  4.13  0.  0.
   415  4.14  0.  0.
   416  4.15  0.  0.
   417  4.16  0.  0.
   418  4.17  0.  0.
   419  4.18  0.  0.
   420  4.19  0.  0.
   421  4.20  0.  0.
   422  4.21  0.  0.
   423  4.22  0.  0.
   424  4.23  0.  0.
   425  4.24  0.  0.
   426  4.25  0.  0.
   427  4.26  0.  0.
   428  4.27  0.  0.
   429  4.28  0.  0.
   430  4.29  0.  0.
   431  4.30  0.  0.
   432  4.31  0.  0.
   433  4.32  0.  0.
   434  4.33  0.  0.
   435  4.34  0.  0.
   436  4.35  0.  0.
   437  4.36  0.  0.
   438  4.37  0.  0.
   439  4.38  0.  0.
   440  4.39  0.  0.
   441  4.40  0.  0.
   442  4.41  0.  0.
   443  4.42  0.  0.
   444  4.43  0.  0.
   445  4.44  0.  0.
   446  4.45  0.  0.
   447  4.46  0.  0.
   448  4.47  0.  0.
   449  4.48  0.  0.
   450  4.49  0.  0.
   451  4.50  0.  0.
   452  4.51  0.  0.
   453  4.52  0.  0.
   454  4.53  0.  0.
   455  4.54  0.  0.
   456  4.55  0.  0.
   457  4.56  0.  0.
   458  4.57  0.  0.
   459  4.58  0.  0.
   460  4.59  0.  0.
   461  4.60  0.  0.
   462  4.61  0.  0.
   463  4.62  0.  0.
   464  4.63  0.  0.
   465  4.64  0.  0.
   466  4.65  0.  0.
   467  4.66  0.  0.
   468  4.67  0.  0.
   469  4.68  0.  0.
   470  4.69  0.  0.
   471  4.70  0.  0.
   472  4.71  0.  0.
   473  4.72  0.  0.
   474  4.73  0.  0.
   475  4.74  0.  0.
   476  4.75  0.  0.
   477  4.76  0.  0.
   478  4.77  0.  0.
   479  4.78  0.  0.
   480  4.79  0.  0.
   481  4.80  0.  0.
   482  4.81  0.  0.
   483  4.82  0.  0.
   484  4.83  0.  0.
   485  4.84  0.  0.
   486  4.85  0.  0.
   487  4.86  0.  0.
   488  4.87  0.  0.
   489  4.88  0.  0.
   490  4.89  0.  0.
   491  4.90  0.  0.
   492  4.91  0.  0.
   493  4.92  0.  0.
   494  4.93  0.  0.
   495  4.94  0.  0.
   496  4.95  0.  0.
   497  4.96  0.  0.
   498  4.97  0.  0.
   499  4.98  0.  0.
   500  4.99  0.  0.
   501  5.00  0.  0.
   502  5.01  0.  0.
   503  5.02  0.  0.
   504  5.03  0.  0.
   505  5.04  0.  0.
   506  5.05  0.  0.
   507  5.06  0.  0.
   508  5.07  0.  0.
   509  5.08  0.  0.
   510  5.09  0.  0.
   511  5.10  0.  0.
   512  5.11  0.  0.
   513  5.12  0.  0.
   514  5.13  0.  0.
   515  5.14  0.  0.
   516  5.15  0.  0.
   517  5.16  0.  0.
   518  5.17  0.  0.
   519  5.18  0.  0.
   520  5.19  0.  0.
   521  5.20  0.  0.
   522  5.21  0.  0.
   523  5.22  0.  0.
   524  5.23  0.  0.
   525  5.24  0.  0.
   526  5.25  0.  0.
   527  5.26  0.  0.
   528  5.27  0.  0.
   529  5.28  0.  0.
   530  5.29  0.  0.
   531  5.30  0.  0.
   532  5.31  0.  0.
   533  5.32  0.  0.
   534  5.33  0.  0.
   535  5.34  0.  0.
   536  5.35  0.  0.
   537  5.36  0.  0.
   538  5.37  0.  0.
   539  5.38  0.  0.
   540  5.39  0.  0.
   541  5.40  0.  0.
   542  5.41  0.  0.
   543  5.42  0.  0.
   544  5.43  0.  0.
   545  5.44  0.  0.
   546  5.45  0.  0.
   547  5.46  0.  0.
   548  5.47  0.  0.
   549  5.48  0.  0.
   550  5.49  0.  0.
   551  5.50  0.  0.
   552  5.51  0.  0.
   553  5.52  0.  0.
   554  5.53  0.  0.
   555  5.54  0.  0.
   556  5.55  0.  0.
   557  5.56  0.  0.
   558  5.57  0.  0.
   559  5.58  0.  0.
   560  5.59  0.  0.
   561  5.60  0.  0.
   562  5.61  0.  0.
   563  5.62  0.  0.
   564  5.63  0.  0.
   565  5.64  0.  0.
   566  5.65  0.  0.
   567  5.66  0.  0.
   568  5.67  0.  0.
   569  5.68  0.  0.
   570  5.69  0.  0.
   571  5.70  0.  0.
   572  5.71  0.  0.
   573  5.72  0.  0.
   574  5.73  0.  0.
   575  5.74  0.  0.
   576  5.75  0.  0.
   577  5.76  0.  0.
   578  5.77  0.  0.
   579  5.78  0.  0.
   580  5.79  0.  0.
   581  5.80  0.  0.
   582  5.81  0.  0.
   583  5.82  0.  0.
   584  5.83  0.  0.
   585  5.84  0.  0.
   586  5.85  0.  0.
   587  5.86  0.  0.
   588  5.87  0.  0.
   589  5.88  0.  0.
   590  5.89  0.  0.
   591  5.90  0.  0.
   592  5.91  0.  0.
   593  5.92  0.  0.
   594  5.93  0.  0.
   595  5.94  0.  0.
   596  5.95  0.  0.
   597  5.96  0.  0.
   598  5.97  0.  0.
   599  5.98  0.  0.
   600  5.99  0.  0.
   1                         3.2129510735022E+00  5.2383321444126E-01
     1  0.0000000000000E+00 -7.8537659362055E-10  1.3433288665460E-09
     2  1.0000000000000E-02  4.5803811139052E-04  7.7157251324956E-05
     3  2.0000000000000E-02  1.8338082321363E-03  3.0478938246680E-04
     4  3.0000000000000E-02  4.1322433270790E-03  6.7143665436931E-04
     5  4.0000000000000E-02  7.3614507868325E-03  1.1581958598969E-03
     6  5.0000000000000E-02  1.1532542609171E-02  1.7390122789018E-03
     7  6.0000000000000E-02  1.6659400650118E-02  2.3810832827758E-03
     8  7.0000000000000E-02  2.2758379900201E-02  3.0453685283272E-03
     9  8.0000000000000E-02  2.9847953526690E-02  3.6872003374908E-03
    10  9.0000000000000E-02  3.7948304164622E-02  4.2569865914728E-03
    11  1.0000000000000E-01  4.7080866629389E-02  4.7009972899916E-03
    12  1.1000000000000E-01  5.7267827853598E-02  4.9622248527676E-03
    13  1.2000000000000E-01  6.8531590413342E-02  4.9813072835753E-03
    14  1.3000000000000E-01  8.0894206497433E-02  4.6975024889676E-03
    15  1.4000000000000E-01  9.4376789581714E-02  4.0497013535152E-03
    16  1.5000000000000E-01  1.0899891139434E-01  2.9774666302298E-03
    17  1.6000000000000E-01  1.2477799199305E-01  1.4220843147922E-03
    18  1.7000000000000E-01  1.4172869091900E-01 -6.7238605933533E-04
    19  1.8000000000000E-01  1.5986230744167E-01 -3.3580758378555E-03
    20  1.9000000000000E-01  1.7918619786515E-01 -6.6822999148569E-03
    21  2.0000000000000E-01  1.9970321772745E-01 -1.0686590939430E-02
    22  2.1000000000000E-01  2.2141119649350E-01 -1.5405787929980E-02
    23  2.2000000000000E-01  2.4430245202042E-01 -2.0867191596219E-02
    24  2.3000000000000E-01  2.6836335166511E-01 -2.7089797948939E-02
    25  2.4000000000000E-01  2.9357392641273E-01 -3.4083620916319E-02
    26  2.5000000000000E-01  3.1990754383537E-01 -4.1849113691919E-02
    27  2.6000000000000E-01  3.4733064505081E-01 -5.0376697424904E-02
    28  2.7000000000000E-01  3.7580255014690E-01 -5.9646404639657E-02
    29  2.8000000000000E-01  4.0527533577670E-01 -6.9627643453870E-02
    30  2.9000000000000E-01  4.3569378782165E-01 -8.0279087265810E-02
    31  3.0000000000000E-01  4.6699543117314E-01 -9.1548693119281E-02
    32  3.1000000000000E-01  4.9911063780647E-01 -1.0337385044496E-01
    33  3.2000000000000E-01  5.3196281342625E-01 -1.1568166033682E-01
    34  3.3000000000000E-01  5.6546866205694E-01 -1.2838934396997E-01
    35  3.4000000000000E-01  5.9953852704920E-01 -1.4140477721937E-01
    36  3.5000000000000E-01  6.3407680608006E-01 -1.5462714701537E-01
    37  3.6000000000000E-01  6.6898243685435E-01 -1.6794772348993E-01
    38  3.7000000000000E-01  7.0414944937581E-01 -1.8125074054346E-01
    39  3.8000000000000E-01  7.3946757985850E-01 -1.9441437611460E-01
    40  3.9000000000000E-01  7.7482294060208E-01 -2.0731182217797E-01
    41  4.0000000000000E-01  8.1009873946682E-01 -2.1981243334525E-01
    42  4.1000000000000E-01  8.4517604196399E-01 -2.3178294191512E-01
    43  4.2000000000000E-01  8.7993456843207E-01 -2.4308872632108E-01
    44  4.3000000000000E-01  9.1425351830560E-01 -2.5359511917418E-01
    45  4.4000000000000E-01  9.4801241310679E-01 -2.6316874049945E-01
    46  4.5000000000000E-01  9.8109194950618E-01 -2.7167884132837E-01
    47  4.6000000000000E-01  1.0133748536093E+00 -2.7899864254169E-01
    48  4.7000000000000E-01  1.0447467275371E+00 -2.8500665376077E-01
    49  4.8000000000000E-01  1.0750968793764E+00 -2.8958795716390E-01
    50  4.9000000000000E-01  1.1043191276897E+00 -2.9263544135787E-01
    51  5.0000000000000E-01  1.1323125719808E+00 -2.9405097086128E-01
    52  5.1000000000000E-01  1.1589823208242E+00 -2.9374647735261E-01
    53  5.2000000000000E-01  1.1842401697694E+00 -2.9164495959626E-01
    54  5.3000000000000E-01  1.2080052216250E+00 -2.8768137987656E-01
    55  5.4000000000000E-01  1.2302044423111E+00 -2.8180344583374E-01
    56  5.5000000000000E-01  1.2507731461289E+00 -2.7397226779637E-01
    57  5.6000000000000E-01  1.2696554050326E+00 -2.6416288302815E-01
    58  5.7000000000000E-01  1.2868043772881E+00 -2.5236463974029E-01
    59  5.8000000000000E-01  1.3021825517627E+00 -2.3858143524774E-01
    60  5.9000000000000E-01  1.3157619049914E+00 -2.2283180425135E-01
    61  6.0000000000000E-01  1.3275239691140E+00 -2.0514885489233E-01
    62  6.1000000000000E-01  1.3374598097423E+00 -1.8558005192944E-01
    63  6.2000000000000E-01  1.3455699138068E+00 -1.6418684811665E-01
    64  6.3000000000000E-01  1.3518639884244E+00 -1.4104416658792E-01
    65  6.4000000000000E-01  1.3563606728166E+00 -1.1623973876813E-01
    66  6.5000000000000E-01  1.3590871662764E+00 -8.9873304004383E-02
    67  6.6000000000000E-01  1.3600787761287E+00 -6.2055678731738E-02
    68  6.7000000000000E-01  1.3593783905314E+00 -3.2907704531602E-02
    69  6.8000000000000E-01  1.3570358818219E+00 -2.5590858929236E-03
    70  6.9000000000000E-01  1.3531074469112E+00  2.8852870172518E-02
    71  7.0000000000000E-01  1.3476548919565E+00  6.1184599294259E-02
    72  7.1000000000000E-01  1.3407448691985E+00  9.4287695246558E-02
    73  7.2000000000000E-01  1.3324480744151E+00  1.2801038043144E-01
    74  7.3000000000000E-01  1.3228384139229E+00  1.6219901522877E-01
    75  7.4000000000000E-01  1.3119921504356E+00  1.9669962952384E-01
    76  7.5000000000000E-01  1.2999870373676E+00  2.3135945933016E-01
    77  7.6000000000000E-01  1.2869014513406E+00  2.6602847122291E-01
    78  7.7000000000000E-01  1.2728135327148E+00  3.0056085729003E-01
    79  7.8000000000000E-01  1.2578003439168E+00  3.3481648349566E-01
    80  7.9000000000000E-01  1.2419370551812E+00  3.6866227473410E-01
    81  8.0000000000000E-01  1.2252961670511E+00  4.0197352042826E-01
    82  8.1000000000000E-01  1.2079467786103E+00  4.3463508529139E-01
    83  8.2000000000000E-01  1.1899539099416E+00  4.6654251081591E-01
    84  8.3000000000000E-01  1.1713778867256E+00  4.9760299417139E-01
    85  8.4000000000000E-01  1.1522737942243E+00  5.2773623247211E-01
    86  8.5000000000000E-01  1.1326910071372E+00  5.5687512180177E-01
    87  8.6000000000000E-01  1.1126728009786E+00  5.8496630194342E-01
    88  8.7000000000000E-01  1.0922560497196E+00  6.1197053943981E-01
    89  8.8000000000000E-01  1.0714710134736E+00  6.3786294338637E-01
    90  8.9000000000000E-01  1.0503412189843E+00  6.6263301021583E-01
    91  9.0000000000000E-01  1.0288834346232E+00  6.8628449565044E-01
    92  9.1000000000000E-01  1.0071077405195E+00  7.0883511395367E-01