Kr    ONCVPSP-4.0.1  r_core=   2.10398   1.70652   2.30150
     36.0000      8.0000      230118    zatom,zion,pspd
     8       2   2     4   600     0    pspcod,pspxc,lmax,lloc,mmax,r2well
  5.99000000  7.00000000  0.00000000    rchrg fchrg qchrg
     2     2     2     0     0    nproj
     1     1           extension_switch
   0                         7.4052529868556E+00  9.4212244029196E-01
     1  0.0000000000000E+00  3.1759483931637E-11 -8.2587839345116E-11
     2  1.0000000000000E-02  3.8204611862557E-02 -1.5518210218233E-02
     3  2.0000000000000E-02  7.6389914055082E-02 -3.1026736965930E-02
     4  3.0000000000000E-02  1.1453649886145E-01 -4.6515669236266E-02
     5  4.0000000000000E-02  1.5262476347110E-01 -6.1974643357732E-02
     6  5.0000000000000E-02  1.9063481491810E-01 -7.7392622660440E-02
     7  6.0000000000000E-02  2.2854637798104E-01 -9.2757684281909E-02
     8  7.0000000000000E-02  2.6633870699333E-01 -1.0805681539452E-01
     9  8.0000000000000E-02  3.0399050248145E-01 -1.2327572105423E-01
    10  9.0000000000000E-02  3.4147983350959E-01 -1.3839864576818E-01
    11  1.0000000000000E-01  3.7878406656286E-01 -1.5340821075840E-01
    12  1.1000000000000E-01  4.1587980174793E-01 -1.6828526876107E-01
    13  1.2000000000000E-01  4.5274281703059E-01 -1.8300877804657E-01
    14  1.3000000000000E-01  4.8934802116444E-01 -1.9755569717649E-01
    15  1.4000000000000E-01  5.2566941589432E-01 -2.1190090183132E-01
    16  1.5000000000000E-01  5.6168006794254E-01 -2.2601712484802E-01
    17  1.6000000000000E-01  5.9735209120685E-01 -2.3987492040163E-01
    18  1.7000000000000E-01  6.3265663951565E-01 -2.5344265305206E-01
    19  1.8000000000000E-01  6.6756391020062E-01 -2.6668651215696E-01
    20  1.9000000000000E-01  7.0204315865864E-01 -2.7957055192681E-01
    21  2.0000000000000E-01  7.3606272398605E-01 -2.9205675717048E-01
    22  2.1000000000000E-01  7.6959006567784E-01 -3.0410513455113E-01
    23  2.2000000000000E-01  8.0259181129494E-01 -3.1567382894433E-01
    24  2.3000000000000E-01  8.3503381491342E-01 -3.2671926426601E-01
    25  2.4000000000000E-01  8.6688122608201E-01 -3.3719630791810E-01
    26  2.5000000000000E-01  8.9809856892889E-01 -3.4705845778685E-01
    27  2.6000000000000E-01  9.2864983097649E-01 -3.5625805052502E-01
    28  2.7000000000000E-01  9.5849856114426E-01 -3.6474648965538E-01
    29  2.8000000000000E-01  9.8760797634450E-01 -3.7247449185180E-01
    30  2.9000000000000E-01  1.0159410760073E+00 -3.7939234958648E-01
    31  3.0000000000000E-01  1.0434607638056E+00 -3.8545020817990E-01
    32  3.1000000000000E-01  1.0701299757939E+00 -3.9059835515395E-01
    33  3.2000000000000E-01  1.0959118141215E+00 -3.9478751967151E-01
    34  3.3000000000000E-01  1.1207696854362E+00 -3.9796917974599E-01
    35  3.4000000000000E-01  1.1446674430568E+00 -4.0009587482605E-01
    36  3.5000000000000E-01  1.1675695319622E+00 -4.0112152130112E-01
    37  3.6000000000000E-01  1.1894411356214E+00 -4.0100172843643E-01
    38  3.7000000000000E-01  1.2102483236747E+00 -3.9969411222938E-01
    39  3.8000000000000E-01  1.2299581994697E+00 -3.9715860468490E-01
    40  3.9000000000000E-01  1.2485390464554E+00 -3.9335775603365E-01
    41  4.0000000000000E-01  1.2659604724479E+00 -3.8825702746569E-01
    42  4.1000000000000E-01  1.2821935507978E+00 -3.8182507202085E-01
    43  4.2000000000000E-01  1.2972109575152E+00 -3.7403400136669E-01
    44  4.3000000000000E-01  1.3109871034363E+00 -3.6485963630387E-01
    45  4.4000000000000E-01  1.3234982605609E+00 -3.5428173896639E-01
    46  4.5000000000000E-01  1.3347226817305E+00 -3.4228422482920E-01
    47  4.6000000000000E-01  1.3446407128723E+00 -3.2885535279721E-01
    48  4.7000000000000E-01  1.3532348970914E+00 -3.1398789182572E-01
    49  4.8000000000000E-01  1.3604900699571E+00 -2.9767926271167E-01
    50  4.9000000000000E-01  1.3663934453984E+00 -2.7993165389630E-01
    51  5.0000000000000E-01  1.3709346916947E+00 -2.6075211033000E-01
    52  5.1000000000000E-01  1.3741059971251E+00 -2.4015259466923E-01
    53  5.2000000000000E-01  1.3759021249178E+00 -2.1815002029934E-01
    54  5.3000000000000E-01  1.3763204572222E+00 -1.9476625590548E-01
    55  5.4000000000000E-01  1.3753610279080E+00 -1.7002810154407E-01
    56  5.5000000000000E-01  1.3730265440795E+00 -1.4396723639657E-01
    57  5.6000000000000E-01  1.3693223962749E+00 -1.1662013861512E-01
    58  5.7000000000000E-01  1.3642566574027E+00 -8.8027977891869E-02
    59  5.8000000000000E-01  1.3578400705494E+00 -5.8236481600636E-02
    60  5.9000000000000E-01  1.3500860258666E+00 -2.7295775567094E-02
    61  6.0000000000000E-01  1.3410105268254E+00  4.7397992789832E-03
    62  6.1000000000000E-01  1.3306321461949E+00  3.7811892930613E-02
    63  6.2000000000000E-01  1.3189719721681E+00  7.1858373399592E-02
    64  6.3000000000000E-01  1.3060535451239E+00  1.0681357311583E-01
    65  6.4000000000000E-01  1.2919027855679E+00  1.4260855272563E-01
    66  6.5000000000000E-01  1.2765479138470E+00  1.7917138026356E-01
    67  6.6000000000000E-01  1.2600193622793E+00  2.1642742357162E-01
    68  6.7000000000000E-01  1.2423496803753E+00  2.5429965375798E-01
    69  6.8000000000000E-01  1.2235734338632E+00  2.9270895742766E-01
    70  6.9000000000000E-01  1.2037270982494E+00  3.3157445537849E-01
    71  7.0000000000000E-01  1.1828489476685E+00  3.7081382543891E-01
    72  7.1000000000000E-01  1.1609789397808E+00  4.1034362712876E-01
    73  7.2000000000000E-01  1.1381585974825E+00  4.5007962585099E-01
    74  7.3000000000000E-01  1.1144308881864E+00  4.8993711436981E-01
    75  7.4000000000000E-01  1.0898401014195E+00  5.2983122939999E-01
    76  7.5000000000000E-01  1.0644317254632E+00  5.6967726122009E-01
    77  7.6000000000000E-01  1.0382523237413E+00  6.0939095433107E-01
    78  7.7000000000000E-01  1.0113494116208E+00  6.4888879730701E-01
    79  7.8000000000000E-01  9.8377133426239E-01  6.8808830012710E-01
    80  7.9000000000000E-01  9.5556714610520E-01  7.2690825743590E-01
    81  8.0000000000000E-01  9.2678649252998E-01  7.6526899634925E-01
    82  8.1000000000000E-01  8.9747949418766E-01  8.0309260760608E-01
    83  8.2000000000000E-01  8.6769663442693E-01  8.4030315905815E-01
    84  8.3000000000000E-01  8.3748865019498E-01  8.7682689068966E-01
    85  8.4000000000000E-01  8.0690642672452E-01  9.1259239056366E-01
    86  8.5000000000000E-01  7.7600089625794E-01  9.4753075130077E-01
    87  8.6000000000000E-01  7.4482294099600E-01  9.8157570690483E-01
    88  8.7000000000000E-01  7.1342330039528E-01  1.0146637499588E+00
    89  8.8000000000000E-01  6.8185248287582E-01  1.0467342294185E+00
    90  8.9000000000000E-01  6.5016068193958E-01  1.0777294294308E+00
    91  9.0000000000000E-01  6.1839769664117E-01  1.1075946297949E+00
    92  9.1000000000000E-01  5.8661285629635E-01  1.1362781488641E+00
    93  9.2000000000000E-01  5.5485494926134E-01  1.1637313698586E+00
    94  9.3000000000000E-01  5.2317215556787E-01  1.1899087517104E+00
    95  9.4000000000000E-01  4.9161198315509E-01  1.2147678257048E+00
    96  9.5000000000000E-01  4.6022120740162E-01  1.2382691793043E+00
    97  9.6000000000000E-01  4.2904581362849E-01  1.2603764286427E+00
    98  9.7000000000000E-01  3.9813094221768E-01  1.2810561812649E+00
    99  9.8000000000000E-01  3.6752083597118E-01  1.3002779907477E+00
   100  9.9000000000000E-01  3.3725878932288E-01  1.3180143048798E+00
   101  1.0000000000000E+00  3.0738709900969E-01  1.3342404091003E+00
   102  1.0100000000000E+00  2.7794701580957E-01  1.3489343668884E+00
   103  1.0200000000000E+00  2.4897869696256E-01  1.3620769587739E+00
   104  1.0300000000000E+00  2.2052115890659E-01  1.3736516215917E+00
   105  1.0400000000000E+00  1.9261222998192E-01  1.3836443895279E+00
   106  1.0500000000000E+00  1.6528850278741E-01  1.3920438384219E+00
   107  1.0600000000000E+00  1.3858528590737E-01  1.3988410346702E+00
   108  1.0700000000000E+00  1.1253655476893E-01  1.4040294899520E+00
   109  1.0800000000000E+00  8.7174901437324E-02  1.4076051228460E+00
   110  1.0900000000000E+00  6.2531483208126E-02  1.4095662282443E+00
   111  1.1000000000000E+00  3.8635969912184E-02  1.4099134552896E+00
   112  1.1100000000000E+00  1.5516489909080E-02  1.4086497943709E+00
   113  1.1200000000000E+00 -6.8004251919282E-03  1.4057805735126E+00
   114  1.1300000000000E+00 -2.8289896978922E-02  1.4013134642790E+00
   115  1.1400000000000E+00 -4.8928757681001E-02  1.3952584971054E+00
   116  1.1500000000000E+00 -6.8695608369609E-02  1.3876280857449E+00
   117  1.1600000000000E+00 -8.7570877611434E-02  1.3784370603029E+00
   118  1.1700000000000E+00 -1.0553688020027E-01  1.3677027081148E+00
   119  1.1800000000000E+00 -1.2257787553146E-01  1.3554448215083E+00
   120  1.1900000000000E+00 -1.3868012512053E-01  1.3416857512892E+00
   121  1.2000000000000E+00 -1.5383194871067E-01  1.3264504645928E+00
   122  1.2100000000000E+00 -1.6802377835967E-01  1.3097666055591E+00
   123  1.2200000000000E+00 -1.8124820984965E-01  1.2916645571249E+00
   124  1.2300000000000E+00 -1.9350005072081E-01  1.2721775020721E+00
   125  1.2400000000000E+00 -2.0477636419502E-01  1.2513414813379E+00
   126  1.2500000000000E+00 -2.1507650822777E-01  1.2291954474857E+00
   127  1.2600000000000E+00 -2.2440216890652E-01  1.2057813111425E+00
   128  1.2700000000000E+00 -2.3275738740254E-01  1.1811439781448E+00
   129  1.2800000000000E+00 -2.4014857968023E-01  1.1553313750992E+00
   130  1.2900000000000E+00 -2.4658454817454E-01  1.1283944610468E+00
   131  1.3000000000000E+00 -2.5207648466286E-01  1.1003872229386E+00
   132  1.3100000000000E+00 -2.5663796358286E-01  1.0713666526706E+00
   133  1.3200000000000E+00 -2.6028492508267E-01  1.0413927034968E+00
   134  1.3300000000000E+00 -2.6303564713379E-01  1.0105282237395E+00
   135  1.3400000000000E+00 -2.6491070609049E-01  9.7883886583796E-01
   136  1.3500000000000E+00 -2.6593292514199E-01  9.4639296893326E-01
   137  1.3600000000000E+00 -2.6612731017427E-01  9.1326141336284E-01
   138  1.3700000000000E+00 -2.6552097263801E-01  8.7951744564198E-01
   139  1.3800000000000E+00 -2.6414303910506E-01  8.4523647273602E-01
   140  1.3900000000000E+00 -2.6202454728977E-01  8.1049582467255E-01
   141  1.4000000000000E+00 -2.5919832841114E-01  7.7537448481105E-01
   142  1.4100000000000E+00 -2.5569887587632E-01  7.3995278736898E-01
   143  1.4200000000000E+00 -2.5156220037615E-01  7.0431208210183E-01
   144  1.4300000000000E+00 -2.4682567159542E-01  6.6853436634285E-01
   145  1.4400000000000E+00 -2.4152784685658E-01  6.3270188492715E-01
   146  1.4500000000000E+00 -2.3570828713250E-01  5.9689669884858E-01
   147  1.4600000000000E+00 -2.2940736098076E-01  5.6120022382475E-01
   148  1.4700000000000E+00 -2.2266603706886E-01  5.2569274027217E-01
   149  1.4800000000000E+00 -2.1552566604919E-01  4.9045287637117E-01
   150  1.4900000000000E+00 -2.0802775259626E-01  4.5555706593287E-01
   151  1.5000000000000E+00 -2.0021372117472E-01  4.2107899802897E-01
   152  1.5100000000000E+00 -1.9212466369086E-01  3.8708898691551E-01
   153  1.5200000000000E+00 -1.8380126079610E-01  3.5365436012961E-01
   154  1.5300000000000E+00 -1.7528399214966E-01  3.2084140533268E-01
   155  1.5400000000000E+00 -1.6661314779444E-01  2.8871600131957E-01
   156  1.5500000000000E+00 -1.5782866551170E-01  2.5734320925628E-01
   157  1.5600000000000E+00 -1.4896997558711E-01  2.2678691442829E-01
   158  1.5700000000000E+00 -1.4007584161468E-01  1.9710944599180E-01
   159  1.5800000000000E+00 -1.3118420084198E-01  1.6837119236106E-01
   160  1.5900000000000E+00 -1.2233200521319E-01  1.4063021527540E-01
   161  1.6000000000000E+00 -1.1355506427377E-01  1.1394186563529E-01
   162  1.6100000000000E+00 -1.0488789114954E-01  8.8358404462826E-02
   163  1.6200000000000E+00 -9.6363552816975E-02  6.3928632370590E-02
   164  1.6300000000000E+00 -8.8013525874469E-02  4.0697530920644E-02
   165  1.6400000000000E+00 -7.9867559006266E-02  1.8705919221462E-02
   166  1.6500000000000E+00 -7.1953543301966E-02 -2.0098709545453E-03
   167  1.6600000000000E+00 -6.4297391554525E-02 -2.1418298346822E-02
   168  1.6700000000000E+00 -5.6922927609415E-02 -3.9492890616637E-02
   169  1.6800000000000E+00 -4.9851786776872E-02 -5.6212495088928E-02
   170  1.6900000000000E+00 -4.3103328248670E-02 -7.1561499108934E-02
   171  1.7000000000000E+00 -3.6694560381004E-02 -8.5530017508978E-02
   172  1.7100000000000E+00 -3.0640079616518E-02 -9.8114044918633E-02
   173  1.7200000000000E+00 -2.4952023721906E-02 -1.0931557091280E-01
   174  1.7300000000000E+00 -1.9640039913745E-02 -1.1914265627483E-01
   175  1.7400000000000E+00 -1.4711268334967E-02 -1.2760946895339E-01
   176  1.7500000000000E+00 -1.0170341228712E-02 -1.3473627860975E-01
   177  1.7600000000000E+00 -6.0193980360878E-03 -1.4054940898358E-01
   178  1.7700000000000E+00 -2.2581165207033E-03 -1.4508114764775E-01
   179  1.7800000000000E+00  1.1162401032853E-03 -1.4836961307244E-01
   180  1.7900000000000E+00  4.1087601903325E-03 -1.5045857927383E-01
   181  1.8000000000000E+00  6.7268051082978E-03 -1.5139725867855E-01
   182  1.8100000000000E+00  8.9799155142719E-03 -1.5124004419053E-01
   183  1.8200000000000E+00  1.0879702990937E-02 -1.5004621179417E-01
   184  1.8300000000000E+00  1.2439727695868E-02 -1.4787958537323E-01
   185  1.8400000000000E+00  1.3675362792682E-02 -1.4480816575259E-01
   186  1.8500000000000E+00  1.4603646545683E-02 -1.4090372628798E-01
   187  1.8600000000000E+00  1.5243123065590E-02 -1.3624137762839E-01
   188  1.8700000000000E+00  1.5613672792700E-02 -1.3089910455568E-01
   189  1.8800000000000E+00  1.5736333894562E-02 -1.2495727806381E-01
   190  1.8900000000000E+00  1.5633115836927E-02 -1.1849814607322E-01
   191  1.9000000000000E+00  1.5326806458677E-02 -1.1160530638174E-01
   192  1.9100000000000E+00  1.4840773943201E-02 -1.0436316563144E-01
   193  1.9200000000000E+00  1.4198765128876E-02 -9.6856388216332E-02
   194  1.9300000000000E+00  1.3424701640710E-02 -8.9169339171842E-02
   195  1.9400000000000E+00  1.2542475352185E-02 -8.1385525167365E-02
   196  1.9500000000000E+00  1.1575744702059E-02 -7.3587037774484E-02
   197  1.9600000000000E+00  1.0547735553471E-02 -6.5854009069817E-02
   198  1.9700000000000E+00  9.4810329336574E-03 -5.8264042444135E-02
   199  1.9800000000000E+00  8.3974005719890E-03 -5.0891719150961E-02
   200  1.9900000000000E+00  7.3176374336493E-03 -4.3808204512542E-02
   201  2.0000000000000E+00  6.2609363095116E-03 -3.7079506926178E-02
   202  2.0100000000000E+00  5.2408819955001E-03 -3.0755562191214E-02
   203  2.0200000000000E+00  4.2716571900775E-03 -2.4887102779622E-02
   204  2.0300000000000E+00  3.3714062411928E-03 -1.9534838663362E-02
   205  2.0400000000000E+00  2.5554884048604E-03 -1.4751141090198E-02
   206  2.0500000000000E+00  1.8372034173643E-03 -1.0582000298016E-02
   207  2.0600000000000E+00  1.2275347024026E-03 -7.0663220185722E-03
   208  2.0700000000000E+00  7.3524619872971E-04 -4.2367035616173E-03
   209  2.0800000000000E+00  3.6568861942172E-04 -2.1126301822147E-03
   210  2.0900000000000E+00  1.2329364237632E-04 -7.1531821502707E-04
   211  2.1000000000000E+00  1.4612688041969E-05 -8.5477381539944E-05
   212  2.1100000000000E+00 -4.7418236253488E-06  2.7631696798575E-05
   213  2.1200000000000E+00  1.2494463992384E-06 -7.2626327987403E-06
   214  2.13 -0.  0.
   215  2.14 -0.  0.
   216  2.15  0. -0.
   217  2.16  0.  0.
   218  2.17  0.  0.
   219  2.18  0.  0.
   220  2.19  0.  0.
   221  2.20  0.  0.
   222  2.21  0.  0.
   223  2.22  0.  0.
   224  2.23  0.  0.
   225  2.24  0.  0.
   226  2.25  0.  0.
   227  2.26  0.  0.
   228  2.27  0.  0.
   229  2.28  0.  0.
   230  2.29  0.  0.
   231  2.30  0.  0.
   232  2.31  0.  0.
   233  2.32  0.  0.
   234  2.33  0.  0.
   235  2.34  0.  0.
   236  2.35  0.  0.
   237  2.36  0.  0.
   238  2.37  0.  0.
   239  2.38  0.  0.
   240  2.39  0.  0.
   241  2.40  0.  0.
   242  2.41  0.  0.
   243  2.42  0.  0.
   244  2.43  0.  0.
   245  2.44  0.  0.
   246  2.45  0.  0.
   247  2.46  0.  0.
   248  2.47  0.  0.
   249  2.48  0.  0.
   250  2.49  0.  0.
   251  2.50  0.  0.
   252  2.51  0.  0.
   253  2.52  0.  0.
   254  2.53  0.  0.
   255  2.54  0.  0.
   256  2.55  0.  0.
   257  2.56  0.  0.
   258  2.57  0.  0.
   259  2.58  0.  0.
   260  2.59  0.  0.
   261  2.60  0.  0.
   262  2.61  0.  0.
   263  2.62  0.  0.
   264  2.63  0.  0.
   265  2.64  0.  0.
   266  2.65  0.  0.
   267  2.66  0.  0.
   268  2.67  0.  0.
   269  2.68  0.  0.
   270  2.69  0.  0.
   271  2.70  0.  0.
   272  2.71  0.  0.
   273  2.72  0.  0.
   274  2.73  0.  0.
   275  2.74  0.  0.
   276  2.75  0.  0.
   277  2.76  0.  0.
   278  2.77  0.  0.
   279  2.78  0.  0.
   280  2.79  0.  0.
   281  2.80  0.  0.
   282  2.81  0.  0.
   283  2.82  0.  0.
   284  2.83  0.  0.
   285  2.84  0.  0.
   286  2.85  0.  0.
   287  2.86  0.  0.
   288  2.87  0.  0.
   289  2.88  0.  0.
   290  2.89  0.  0.
   291  2.90  0.  0.
   292  2.91  0.  0.
   293  2.92  0.  0.
   294  2.93  0.  0.
   295  2.94  0.  0.
   296  2.95  0.  0.
   297  2.96  0.  0.
   298  2.97  0.  0.
   299  2.98  0.  0.
   300  2.99  0.  0.
   301  3.00  0.  0.
   302  3.01  0.  0.
   303  3.02  0.  0.
   304  3.03  0.  0.
   305  3.04  0.  0.
   306  3.05  0.  0.
   307  3.06  0.  0.
   308  3.07  0.  0.
   309  3.08  0.  0.
   310  3.09  0.  0.
   311  3.10  0.  0.
   312  3.11  0.  0.
   313  3.12  0.  0.
   314  3.13  0.  0.
   315  3.14  0.  0.
   316  3.15  0.  0.
   317  3.16  0.  0.
   318  3.17  0.  0.
   319  3.18  0.  0.
   320  3.19  0.  0.
   321  3.20  0.  0.
   322  3.21  0.  0.
   323  3.22  0.  0.
   324  3.23  0.  0.
   325  3.24  0.  0.
   326  3.25  0.  0.
   327  3.26  0.  0.
   328  3.27  0.  0.
   329  3.28  0.  0.
   330  3.29  0.  0.
   331  3.30  0.  0.
   332  3.31  0.  0.
   333  3.32  0.  0.
   334  3.33  0.  0.
   335  3.34  0.  0.
   336  3.35  0.  0.
   337  3.36  0.  0.
   338  3.37  0.  0.
   339  3.38  0.  0.
   340  3.39  0.  0.
   341  3.40  0.  0.
   342  3.41  0.  0.
   343  3.42  0.  0.
   344  3.43  0.  0.
   345  3.44  0.  0.
   346  3.45  0.  0.
   347  3.46  0.  0.
   348  3.47  0.  0.
   349  3.48  0.  0.
   350  3.49  0.  0.
   351  3.50  0.  0.
   352  3.51  0.  0.
   353  3.52  0.  0.
   354  3.53  0.  0.
   355  3.54  0.  0.
   356  3.55  0.  0.
   357  3.56  0.  0.
   358  3.57  0.  0.
   359  3.58  0.  0.
   360  3.59  0.  0.
   361  3.60  0.  0.
   362  3.61  0.  0.
   363  3.62  0.  0.
   364  3.63  0.  0.
   365  3.64  0.  0.
   366  3.65  0.  0.
   367  3.66  0.  0.
   368  3.67  0.  0.
   369  3.68  0.  0.
   370  3.69  0.  0.
   371  3.70  0.  0.
   372  3.71  0.  0.
   373  3.72  0.  0.
   374  3.73  0.  0.
   375  3.74  0.  0.
   376  3.75  0.  0.
   377  3.76  0.  0.
   378  3.77  0.  0.
   379  3.78  0.  0.
   380  3.79  0.  0.
   381  3.80  0.  0.
   382  3.81  0.  0.
   383  3.82  0.  0.
   384  3.83  0.  0.
   385  3.84  0.  0.
   386  3.85  0.  0.
   387  3.86  0.  0.
   388  3.87  0.  0.
   389  3.88  0.  0.
   390  3.89  0.  0.
   391  3.90  0.  0.
   392  3.91  0.  0.
   393  3.92  0.  0.
   394  3.93  0.  0.
   395  3.94  0.  0.
   396  3.95  0.  0.
   397  3.96  0.  0.
   398  3.97  0.  0.
   399  3.98  0.  0.
   400  3.99  0.  0.
   401  4.00  0.  0.
   402  4.01  0.  0.
   403  4.02  0.  0.
   404  4.03  0.  0.
   405  4.04  0.  0.
   406  4.05  0.  0.
   407  4.06  0.  0.
   408  4.07  0.  0.
   409  4.08  0.  0.
   410  4.09  0.  0.
   411  4.10  0.  0.
   412  4.11  0.  0.
   413  4.12  0.  0.
   414  4.13  0.  0.
   415  4.14  0.  0.
   416  4.15  0.  0.
   417  4.16  0.  0.
   418  4.17  0.  0.
   419  4.18  0.  0.
   420  4.19  0.  0.
   421  4.20  0.  0.
   422  4.21  0.  0.
   423  4.22  0.  0.
   424  4.23  0.  0.
   425  4.24  0.  0.
   426  4.25  0.  0.
   427  4.26  0.  0.
   428  4.27  0.  0.
   429  4.28  0.  0.
   430  4.29  0.  0.
   431  4.30  0.  0.
   432  4.31  0.  0.
   433  4.32  0.  0.
   434  4.33  0.  0.
   435  4.34  0.  0.
   436  4.35  0.  0.
   437  4.36  0.  0.
   438  4.37  0.  0.
   439  4.38  0.  0.
   440  4.39  0.  0.
   441  4.40  0.  0.
   442  4.41  0.  0.
   443  4.42  0.  0.
   444  4.43  0.  0.
   445  4.44  0.  0.
   446  4.45  0.  0.
   447  4.46  0.  0.
   448  4.47  0.  0.
   449  4.48  0.  0.
   450  4.49  0.  0.
   451  4.50  0.  0.
   452  4.51  0.  0.
   453  4.52  0.  0.
   454  4.53  0.  0.
   455  4.54  0.  0.
   456  4.55  0.  0.
   457  4.56  0.  0.
   458  4.57  0.  0.
   459  4.58  0.  0.
   460  4.59  0.  0.
   461  4.60  0.  0.
   462  4.61  0.  0.
   463  4.62  0.  0.
   464  4.63  0.  0.
   465  4.64  0.  0.
   466  4.65  0.  0.
   467  4.66  0.  0.
   468  4.67  0.  0.
   469  4.68  0.  0.
   470  4.69  0.  0.
   471  4.70  0.  0.
   472  4.71  0.  0.
   473  4.72  0.  0.
   474  4.73  0.  0.
   475  4.74  0.  0.
   476  4.75  0.  0.
   477  4.76  0.  0.
   478  4.77  0.  0.
   479  4.78  0.  0.
   480  4.79  0.  0.
   481  4.80  0.  0.
   482  4.81  0.  0.
   483  4.82  0.  0.
   484  4.83  0.  0.
   485  4.84  0.  0.
   486  4.85  0.  0.
   487  4.86  0.  0.
   488  4.87  0.  0.
   489  4.88  0.  0.
   490  4.89  0.  0.
   491  4.90  0.  0.
   492  4.91  0.  0.
   493  4.92  0.  0.
   494  4.93  0.  0.
   495  4.94  0.  0.
   496  4.95  0.  0.
   497  4.96  0.  0.
   498  4.97  0.  0.
   499  4.98  0.  0.
   500  4.99  0.  0.
   501  5.00  0.  0.
   502  5.01  0.  0.
   503  5.02  0.  0.
   504  5.03  0.  0.
   505  5.04  0.  0.
   506  5.05  0.  0.
   507  5.06  0.  0.
   508  5.07  0.  0.
   509  5.08  0.  0.
   510  5.09  0.  0.
   511  5.10  0.  0.
   512  5.11  0.  0.
   513  5.12  0.  0.
   514  5.13  0.  0.
   515  5.14  0.  0.
   516  5.15  0.  0.
   517  5.16  0.  0.
   518  5.17  0.  0.
   519  5.18  0.  0.
   520  5.19  0.  0.
   521  5.20  0.  0.
   522  5.21  0.  0.
   523  5.22  0.  0.
   524  5.23  0.  0.
   525  5.24  0.  0.
   526  5.25  0.  0.
   527  5.26  0.  0.
   528  5.27  0.  0.
   529  5.28  0.  0.
   530  5.29  0.  0.
   531  5.30  0.  0.
   532  5.31  0.  0.
   533  5.32  0.  0.
   534  5.33  0.  0.
   535  5.34  0.  0.
   536  5.35  0.  0.
   537  5.36  0.  0.
   538  5.37  0.  0.
   539  5.38  0.  0.
   540  5.39  0.  0.
   541  5.40  0.  0.
   542  5.41  0.  0.
   543  5.42  0.  0.
   544  5.43  0.  0.
   545  5.44  0.  0.
   546  5.45  0.  0.
   547  5.46  0.  0.
   548  5.47  0.  0.
   549  5.48  0.  0.
   550  5.49  0.  0.
   551  5.50  0.  0.
   552  5.51  0.  0.
   553  5.52  0.  0.
   554  5.53  0.  0.
   555  5.54  0.  0.
   556  5.55  0.  0.
   557  5.56  0.  0.
   558  5.57  0.  0.
   559  5.58  0.  0.
   560  5.59  0.  0.
   561  5.60  0.  0.
   562  5.61  0.  0.
   563  5.62  0.  0.
   564  5.63  0.  0.
   565  5.64  0.  0.
   566  5.65  0.  0.
   567  5.66  0.  0.
   568  5.67  0.  0.
   569  5.68  0.  0.
   570  5.69  0.  0.
   571  5.70  0.  0.
   572  5.71  0.  0.
   573  5.72  0.  0.
   574  5.73  0.  0.
   575  5.74  0.  0.
   576  5.75  0.  0.
   577  5.76  0.  0.
   578  5.77  0.  0.
   579  5.78  0.  0.
   580  5.79  0.  0.
   581  5.80  0.  0.
   582  5.81  0.  0.
   583  5.82  0.  0.
   584  5.83  0.  0.
   585  5.84  0.  0.
   586  5.85  0.  0.
   587  5.86  0.  0.
   588  5.87  0.  0.
   589  5.88  0.  0.
   590  5.89  0.  0.
   591  5.90  0.  0.
   592  5.91  0.  0.
   593  5.92  0.  0.
   594  5.93  0.  0.
   595  5.94  0.  0.
   596  5.95  0.  0.
   597  5.96  0.  0.
   598  5.97  0.  0.
   599  5.98  0.  0.
   600  5.99  0.  0.
   1                         5.2364113248939E+00  6.0844720648807E-01
     1  0.0000000000000E+00  5.3090733198591E-11 -1.0220135154837E-10
     2  1.0000000000000E-02  8.8493307291687E-04 -5.1601147227608E-04
     3  2.0000000000000E-02  3.5375887364643E-03 -2.0619443212705E-03
     4  3.0000000000000E-02  7.9515421134338E-03 -4.6315015625655E-03
     5  4.0000000000000E-02  1.4116104340829E-02 -8.2142138953333E-03
     6  5.0000000000000E-02  2.2016351367413E-02 -1.2795478013248E-02
     7  6.0000000000000E-02  3.1633164069368E-02 -1.8356609844660E-02
     8  7.0000000000000E-02  4.2943279485759E-02 -2.4874912333348E-02
     9  8.0000000000000E-02  5.5919352922418E-02 -3.2323757268971E-02
    10  9.0000000000000E-02  7.0530030622535E-02 -4.0672680580983E-02
    11  1.0000000000000E-01  8.6740032654991E-02 -4.9887490421925E-02
    12  1.1000000000000E-01  1.0451024562795E-01 -5.9930387287377E-02
    13  1.2000000000000E-01  1.2379782479575E-01 -7.0760095351168E-02
    14  1.3000000000000E-01  1.4455630509220E-01 -8.2332004136693E-02
    15  1.4000000000000E-01  1.6673572059308E-01 -9.4598319598911E-02
    16  1.5000000000000E-01  1.9028273188564E-01 -1.0750822365789E-01
    17  1.6000000000000E-01  2.1514076080279E-01 -1.2100804120318E-01
    18  1.7000000000000E-01  2.4125013196539E-01 -1.3504141357997E-01
    19  1.8000000000000E-01  2.6854822056665E-01 -1.4954947757226E-01
    20  1.9000000000000E-01  2.9696960582921E-01 -1.6447104891510E-01
    21  2.0000000000000E-01  3.2644622956685E-01 -1.7974280939754E-01
    22  2.1000000000000E-01  3.5690755928982E-01 -1.9529949665872E-01
    23  2.2000000000000E-01  3.8828075530420E-01 -2.1107409583199E-01
    24  2.3000000000000E-01  4.2049084127251E-01 -2.2699803225416E-01
    25  2.4000000000000E-01  4.5346087772291E-01 -2.4300136452844E-01
    26  2.5000000000000E-01  4.8711213801956E-01 -2.5901297730948E-01
    27  2.6000000000000E-01  5.2136428633415E-01 -2.7496077326462E-01
    28  2.7000000000000E-01  5.5613555718982E-01 -2.9077186375733E-01
    29  2.8000000000000E-01  5.9134293618209E-01 -3.0637275789364E-01
    30  2.9000000000000E-01  6.2690234151609E-01 -3.2168954966970E-01
    31  3.0000000000000E-01  6.6272880603622E-01 -3.3664810305639E-01
    32  3.1000000000000E-01  6.9873665946057E-01 -3.5117423495326E-01
    33  3.2000000000000E-01  7.3483971056972E-01 -3.6519389603767E-01
    34  3.3000000000000E-01  7.7095142913517E-01 -3.7863334962419E-01
    35  3.4000000000000E-01  8.0698512740747E-01 -3.9141934873194E-01
    36  3.5000000000000E-01  8.4285414101676E-01 -4.0347931163248E-01
    37  3.6000000000000E-01  8.7847200916877E-01 -4.1474149621703E-01
    38  3.7000000000000E-01  9.1375265404599E-01 -4.2513517357639E-01
    39  3.8000000000000E-01  9.4861055934762E-01 -4.3459080123081E-01
    40  3.9000000000000E-01  9.8296094792087E-01 -4.4304019647671E-01
    41  4.0000000000000E-01  1.0167199584513E+00 -4.5041671033428E-01
    42  4.1000000000000E-01  1.0498048211899E+00 -4.5665540258135E-01
    43  4.2000000000000E-01  1.0821340326990E+00 -4.6169321834578E-01
    44  4.3000000000000E-01  1.1136275296000E+00 -4.6546916669996E-01
    45  4.4000000000000E-01  1.1442068612982E+00 -4.6792450165668E-01
    46  4.5000000000000E-01  1.1737953616505E+00 -4.6900290590570E-01
    47  4.6000000000000E-01  1.2023183195239E+00 -4.6865067755611E-01
    48  4.7000000000000E-01  1.2297031481700E+00 -4.6681692005949E-01
    49  4.8000000000000E-01  1.2558795533161E+00 -4.6345373538710E-01
    50  4.9000000000000E-01  1.2807796998372E+00 -4.5851642041782E-01
    51  5.0000000000000E-01  1.3043383768410E+00 -4.5196366636764E-01
    52  5.1000000000000E-01  1.3264931609544E+00 -4.4375776095432E-01
    53  5.2000000000000E-01  1.3471845775560E+00 -4.3386479284669E-01
    54  5.3000000000000E-01  1.3663562596546E+00 -4.2225485779624E-01
    55  5.4000000000000E-01  1.3839551040612E+00 -4.0890226569422E-01
    56  5.5000000000000E-01  1.3999314244527E+00 -3.9378574763880E-01
    57  5.6000000000000E-01  1.4142391008738E+00 -3.7688866194043E-01
    58  5.7000000000000E-01  1.4268357251714E+00 -3.5819919783735E-01
    59  5.8000000000000E-01  1.4376827418054E+00 -3.3771057554357E-01
    60  5.9000000000000E-01  1.4467455834286E+00 -3.1542124110780E-01
    61  6.0000000000000E-01  1.4539938005862E+00 -2.9133505442831E-01
    62  6.1000000000000E-01  1.4594011848352E+00 -2.6546146864671E-01
    63  6.2000000000000E-01  1.4629458845511E+00 -2.3781569903588E-01
    64  6.3000000000000E-01  1.4646105126514E+00 -2.0841887940599E-01
    65  6.4000000000000E-01  1.4643822454377E+00 -1.7729820397937E-01
    66  6.5000000000000E-01  1.4622529117366E+00 -1.4448705263244E-01
    67  6.6000000000000E-01  1.4582190715051E+00 -1.1002509737214E-01
    68  6.7000000000000E-01  1.4522820830580E+00 -7.3958387907022E-02
    69  6.8000000000000E-01  1.4444481580786E+00 -3.6339414190745E-02
    70  6.9000000000000E-01  1.4347284035815E+00  2.7728561411321E-03
    71  7.0000000000000E-01  1.4231388500174E+00  4.3312967450613E-02
    72  7.1000000000000E-01  1.4097004647402E+00  8.5208994805862E-02
    73  7.2000000000000E-01  1.3944391500914E+00  1.2838259350883E-01
    74  7.3000000000000E-01  1.3773857254094E+00  1.7274908108142E-01
    75  7.4000000000000E-01  1.3585758923269E+00  2.1821755317387E-01
    76  7.5000000000000E-01  1.3380501827870E+00  2.6469103465757E-01
    77  7.6000000000000E-01  1.3158538892875E+00  3.1206666693909E-01
    78  7.7000000000000E-01  1.2920369769459E+00  3.6023593228464E-01
    79  7.8000000000000E-01  1.2666539770728E+00  4.0908491567553E-01
    80  7.9000000000000E-01  1.2397638620439E+00  4.5849460442856E-01
    81  8.0000000000000E-01  1.2114299013667E+00  5.0834122551224E-01
    82  8.1000000000000E-01  1.1817194989562E+00  5.5849662017377E-01
    83  8.2000000000000E-01  1.1507040117509E+00  6.0882865516494E-01
    84  8.3000000000000E-01  1.1184585499266E+00  6.5920166952136E-01
    85  8.4000000000000E-01  1.0850617590923E+00  7.0947695551183E-01
    86  8.5000000000000E-01  1.0505955849820E+00  7.5951327203597E-01
    87  8.6000000000000E-01  1.0151450212867E+00  8.0916738841344E-01
    88  8.7000000000000E-01  9.7879784140173E-01  8.5829465617909E-01
    89  8.8000000000000E-01  9.4164431499096E-01  9.0674960618029E-01
    90  8.9000000000000E-01  9.0377691039776E-01  9.5438656796784E-01
    91  9.0000000000000E-01  8.6528998405209E-01  1.0010603081853E+00
    92  9.1000000000000E-01  8.2627945813998E-01  1.0466266843952E+00