Sr    ONCVPSP-4.0.1  r_core=   2.50198   2.32867   2.50198
     38.0000     10.0000      230118    zatom,zion,pspd
     8       2   2     4   600     0    pspcod,pspxc,lmax,lloc,mmax,r2well
  5.99000000  6.00000000  0.00000000    rchrg fchrg qchrg
     2     2     2     0     0    nproj
     1     1           extension_switch
   0                         3.1687701908022E+00  4.6753150578284E-01
     1  0.0000000000000E+00 -1.2930934101263E-11  3.0913438475721E-11
     2  1.0000000000000E-02  4.1009862776668E-02 -8.7742577900919E-03
     3  2.0000000000000E-02  8.1976074172863E-02 -1.7513823376939E-02
     4  3.0000000000000E-02  1.2285506073184E-01 -2.6184125189152E-02
     5  4.0000000000000E-02  1.6360340446313E-01 -3.4750832062339E-02
     6  5.0000000000000E-02  2.0417791962609E-01 -4.3179971308710E-02
     7  6.0000000000000E-02  2.4453572838320E-01 -5.1438044248122E-02
     8  7.0000000000000E-02  2.8463433496149E-01 -5.9492138390918E-02
     9  8.0000000000000E-02  3.2443169797378E-01 -6.7310035493878E-02
    10  9.0000000000000E-02  3.6388630056688E-01 -7.4860314748679E-02
    11  1.0000000000000E-01  4.0295721808298E-01 -8.2112450407156E-02
    12  1.1000000000000E-01  4.4160418294185E-01 -8.9036903199014E-02
    13  1.2000000000000E-01  4.7978764647522E-01 -9.5605204954842E-02
    14  1.3000000000000E-01  5.1746883747119E-01 -1.0179003590989E-01
    15  1.4000000000000E-01  5.5460981721444E-01 -1.0756529423154E-01
    16  1.5000000000000E-01  5.9117353083796E-01 -1.1290615738487E-01
    17  1.6000000000000E-01  6.2712385483363E-01 -1.1778913502583E-01
    18  1.7000000000000E-01  6.6242564060116E-01 -1.2219211318938E-01
    19  1.8000000000000E-01  6.9704475394867E-01 -1.2609438961965E-01
    20  1.9000000000000E-01  7.3094811049177E-01 -1.2947670017056E-01
    21  2.0000000000000E-01  7.6410370693258E-01 -1.3232123628680E-01
    22  2.1000000000000E-01  7.9648064823375E-01 -1.3461165365650E-01
    23  2.2000000000000E-01  8.2804917073654E-01 -1.3633307220739E-01
    24  2.3000000000000E-01  8.5878066130480E-01 -1.3747206769665E-01
    25  2.4000000000000E-01  8.8864767260846E-01 -1.3801665522079E-01
    26  2.5000000000000E-01  9.1762393469072E-01 -1.3795626504452E-01
    27  2.6000000000000E-01  9.4568436299207E-01 -1.3728171121654E-01
    28  2.7000000000000E-01  9.7280506303099E-01 -1.3598515350395E-01
    29  2.8000000000000E-01  9.9896333196609E-01 -1.3406005323620E-01
    30  2.9000000000000E-01  1.0241376572867E+00 -1.3150112370235E-01
    31  3.0000000000000E-01  1.0483077128987E+00 -1.2830427579206E-01
    32  3.1000000000000E-01  1.0714543528892E+00 -1.2446655961071E-01
    33  3.2000000000000E-01  1.0935596032675E+00 -1.1998610283168E-01
    34  3.3000000000000E-01  1.1146066519906E+00 -1.1486204657379E-01
    35  3.4000000000000E-01  1.1345798375890E+00 -1.0909447960958E-01
    36  3.5000000000000E-01  1.1534646367134E+00 -1.0268437171888E-01
    37  3.6000000000000E-01  1.1712476509219E+00 -9.5633507003923E-02
    38  3.7000000000000E-01  1.1879165930270E+00 -8.7944417974982E-02
    39  3.8000000000000E-01  1.2034602733149E+00 -7.9620321200445E-02
    40  3.9000000000000E-01  1.2178685859401E+00 -7.0665055292593E-02
    41  4.0000000000000E-01  1.2311324957857E+00 -6.1083021969010E-02
    42  4.1000000000000E-01  1.2432440260664E+00 -5.0879130891774E-02
    43  4.2000000000000E-01  1.2541962469291E+00 -4.0058748940527E-02
    44  4.3000000000000E-01  1.2639832652882E+00 -2.8627654523627E-02
    45  4.4000000000000E-01  1.2726002161073E+00 -1.6591997472634E-02
    46  4.5000000000000E-01  1.2800432553123E+00 -3.9582650012145E-03
    47  4.6000000000000E-01  1.2863095544931E+00  9.2667458601705E-03
    48  4.7000000000000E-01  1.2913972975219E+00  2.3075949016504E-02
    49  4.8000000000000E-01  1.2953056791819E+00  3.7461982988104E-02
    50  4.9000000000000E-01  1.2980349058704E+00  5.2417217339761E-02
    51  5.0000000000000E-01  1.2995861984024E+00  6.7933751764613E-02
    52  5.1000000000000E-01  1.2999617969107E+00  8.4003407812561E-02
    53  5.2000000000000E-01  1.2991649677989E+00  1.0061771333943E-01
    54  5.3000000000000E-01  1.2972000126739E+00  1.1776787983828E-01
    55  5.4000000000000E-01  1.2940722791460E+00  1.3544477289918E-01
    56  5.5000000000000E-01  1.2897881733528E+00  1.5363887612672E-01
    57  5.6000000000000E-01  1.2843551740316E+00  1.7234024892518E-01
    58  5.7000000000000E-01  1.2777818479328E+00  1.9153847863822E-01
    59  5.8000000000000E-01  1.2700778663365E+00  2.1122262760279E-01
    60  5.9000000000000E-01  1.2612540224104E+00  2.3138117574588E-01
    61  6.0000000000000E-01  1.2513222491190E+00  2.5200195941447E-01
    62  6.1000000000000E-01  1.2402956373740E+00  2.7307210718601E-01
    63  6.2000000000000E-01  1.2281884540960E+00  2.9457797345642E-01
    64  6.3000000000000E-01  1.2150161598394E+00  3.1650507064485E-01
    65  6.4000000000000E-01  1.2007954256239E+00  3.3883800088879E-01
    66  6.5000000000000E-01  1.1855441486008E+00  3.6156038813002E-01
    67  6.6000000000000E-01  1.1692814661818E+00  3.8465481150913E-01
    68  6.7000000000000E-01  1.1520277682512E+00  4.0810274099588E-01
    69  6.8000000000000E-01  1.1338047070870E+00  4.3188447618238E-01
    70  6.9000000000000E-01  1.1146352046211E+00  4.5597908915751E-01
    71  7.0000000000000E-01  1.0945434566759E+00  4.8036437236276E-01
    72  7.1000000000000E-01  1.0735549338309E+00  5.0501679230282E-01
    73  7.2000000000000E-01  1.0516963785863E+00  5.2991144994849E-01
    74  7.3000000000000E-01  1.0289957985128E+00  5.5502204862508E-01
    75  7.4000000000000E-01  1.0054824550993E+00  5.8032087012719E-01
    76  7.5000000000000E-01  9.8118684803700E-01  6.0577875973978E-01
    77  7.6000000000000E-01  9.5614069471039E-01  6.3136512077835E-01
    78  7.7000000000000E-01  9.3037690469410E-01  6.5704791918602E-01
    79  7.8000000000000E-01  9.0392954909472E-01  6.8279369864470E-01
    80  7.9000000000000E-01  8.7683382461091E-01  7.0856760657137E-01
    81  8.0000000000000E-01  8.4912601222612E-01  7.3433343127921E-01
    82  8.1000000000000E-01  8.2084343048905E-01  7.6005365048866E-01
    83  8.2000000000000E-01  7.9202438337949E-01  7.8568949127519E-01
    84  8.3000000000000E-01  7.6270810280061E-01  8.1120100143997E-01
    85  8.4000000000000E-01  7.3293468578246E-01  8.3654713218808E-01
    86  8.5000000000000E-01  7.0274502652584E-01  8.6168583189672E-01
    87  8.6000000000000E-01  6.7218074345898E-01  8.8657415065370E-01
    88  8.7000000000000E-01  6.4128410152330E-01  9.1116835514624E-01
    89  8.8000000000000E-01  6.1009792994581E-01  9.3542405338257E-01
    90  8.9000000000000E-01  5.7866553579726E-01  9.5929632863289E-01
    91  9.0000000000000E-01  5.4703061367332E-01  9.8273988188667E-01
    92  9.1000000000000E-01  5.1523715187329E-01  1.0057091820368E+00
    93  9.2000000000000E-01  4.8332933548483E-01  1.0281586229218E+00
    94  9.3000000000000E-01  4.5135144681465E-01  1.0500426862827E+00
    95  9.4000000000000E-01  4.1934776363334E-01  1.0713161096283E+00
    96  9.5000000000000E-01  3.8736245572739E-01  1.0919340579395E+00
    97  9.6000000000000E-01  3.5543948027253E-01  1.1118522981001E+00
    98  9.7000000000000E-01  3.2362247655971E-01  1.1310273748950E+00
    99  9.8000000000000E-01  2.9195466061833E-01  1.1494167873916E+00
   100  9.9000000000000E-01  2.6047872029035E-01  1.1669791644949E+00
   101  1.0000000000000E+00  2.2923671131291E-01  1.1836744384592E+00
   102  1.0100000000000E+00  1.9826995496815E-01  1.1994640151369E+00
   103  1.0200000000000E+00  1.6761893785357E-01  1.2143109397570E+00
   104  1.0300000000000E+00  1.3732321431820E-01  1.2281800570453E+00
   105  1.0400000000000E+00  1.0742131209630E-01  1.2410381645292E+00
   106  1.0500000000000E+00  7.7950641652529E-02  1.2528541579132E+00
   107  1.0600000000000E+00  4.8947409730972E-02  1.2635991674591E+00
   108  1.0700000000000E+00  2.0446537574369E-02  1.2732466843690E+00
   109  1.0800000000000E+00 -7.5184157501006E-03  1.2817726762362E+00
   110  1.0900000000000E+00 -3.4915324515389E-02  1.2891556907091E+00
   111  1.1000000000000E+00 -6.1713561623349E-02  1.2953769465989E+00
   112  1.1100000000000E+00 -8.7884057691687E-02  1.3004204117542E+00
   113  1.1200000000000E+00 -1.1339935365546E-01  1.3042728671266E+00
   114  1.1300000000000E+00 -1.3823364664510E-01  1.3069239565569E+00
   115  1.1400000000000E+00 -1.6236282894965E-01  1.3083662219187E+00
   116  1.1500000000000E+00 -1.8576451992315E-01  1.3085951233746E+00
   117  1.1600000000000E+00 -2.0841809074191E-01  1.3076090446109E+00
   118  1.1700000000000E+00 -2.3030468197136E-01  1.3054092830401E+00
   119  1.1800000000000E+00 -2.5140721395230E-01  1.3020000250752E+00
   120  1.1900000000000E+00 -2.7171039006772E-01  1.2973883067012E+00
   121  1.2000000000000E+00 -2.9120069300172E-01  1.2915839596824E+00
   122  1.2100000000000E+00 -3.0986637415172E-01  1.2845995438646E+00
   123  1.2200000000000E+00 -3.2769743640371E-01  1.2764502661345E+00
   124  1.2300000000000E+00 -3.4468561052611E-01  1.2671538867117E+00
   125  1.2400000000000E+00 -3.6082432548257E-01  1.2567306135461E+00
   126  1.2500000000000E+00 -3.7610867300498E-01  1.2452029856882E+00
   127  1.2600000000000E+00 -3.9053536680698E-01  1.2325957465879E+00
   128  1.2700000000000E+00 -4.0410269685295E-01  1.2189357083560E+00
   129  1.2800000000000E+00 -4.1681047912915E-01  1.2042516080920E+00
   130  1.2900000000000E+00 -4.2866000139112E-01  1.1885739574428E+00
   131  1.3000000000000E+00 -4.3965396538476E-01  1.1719348866076E+00
   132  1.3100000000000E+00 -4.4979642605712E-01  1.1543679840429E+00
   133  1.3200000000000E+00 -4.5909272828743E-01  1.1359081331510E+00
   134  1.3300000000000E+00 -4.6754944167829E-01  1.1165913472518E+00
   135  1.3400000000000E+00 -4.7517429395126E-01  1.0964546041436E+00
   136  1.3500000000000E+00 -4.8197610349139E-01  1.0755356815519E+00
   137  1.3600000000000E+00 -4.8796471157949E-01  1.0538729947490E+00
   138  1.3700000000000E+00 -4.9315091484130E-01  1.0315054375937E+00
   139  1.3800000000000E+00 -4.9754639842768E-01  1.0084722282041E+00
   140  1.3900000000000E+00 -5.0116367042069E-01  9.8481276042194E-01
   141  1.4000000000000E+00 -5.0401599793626E-01  9.6056646216266E-01
   142  1.4100000000000E+00 -5.0611734536625E-01  9.3577266167657E-01
   143  1.4200000000000E+00 -5.0748231517011E-01  9.1047046265971E-01
   144  1.4300000000000E+00 -5.0812609159082E-01  8.8469862906473E-01
   145  1.4400000000000E+00 -5.0806438763013E-01  8.5849548036102E-01
   146  1.4500000000000E+00 -5.0731339557598E-01  8.3189879788748E-01
   147  1.4600000000000E+00 -5.0588974132970E-01  8.0494574282828E-01
   148  1.4700000000000E+00 -5.0381044273374E-01  7.7767278622416E-01
   149  1.4800000000000E+00 -5.0109287205098E-01  7.5011565130911E-01
   150  1.4900000000000E+00 -4.9775472269716E-01  7.2230926833766E-01
   151  1.5000000000000E+00 -4.9381398027575E-01  6.9428774194018E-01
   152  1.5100000000000E+00 -4.8928889791366E-01  6.6608433091590E-01
   153  1.5200000000000E+00 -4.8419797584421E-01  6.3773144024545E-01
   154  1.5300000000000E+00 -4.7855994513294E-01  6.0926062497917E-01
   155  1.5400000000000E+00 -4.7239375539209E-01  5.8070260553366E-01
   156  1.5500000000000E+00 -4.6571856628086E-01  5.5208729380983E-01
   157  1.5600000000000E+00 -4.5855374254271E-01  5.2344382943171E-01
   158  1.5700000000000E+00 -4.5091885228669E-01  4.9480062529635E-01
   159  1.5800000000000E+00 -4.4283366817912E-01  4.6618542152498E-01
   160  1.5900000000000E+00 -4.3431817117424E-01  4.3762534681202E-01
   161  1.6000000000000E+00 -4.2539255637841E-01  4.0914698608512E-01
   162  1.6100000000000E+00 -4.1607724061266E-01  3.8077645331528E-01
   163  1.6200000000000E+00 -4.0639287121278E-01  3.5253946825301E-01
   164  1.6300000000000E+00 -3.9636033558519E-01  3.2446143581455E-01
   165  1.6400000000000E+00 -3.8600077102077E-01  2.9656752680180E-01
   166  1.6500000000000E+00 -3.7533557425775E-01  2.6888275861253E-01
   167  1.6600000000000E+00 -3.6438641027890E-01  2.4143207458163E-01
   168  1.6700000000000E+00 -3.5317521982774E-01  2.1424042059260E-01
   169  1.6800000000000E+00 -3.4172422513302E-01  1.8733281760916E-01
   170  1.6900000000000E+00 -3.3005593334107E-01  1.6073442880077E-01
   171  1.7000000000000E+00 -3.1819313717062E-01  1.3447061997266E-01
   172  1.7100000000000E+00 -3.0615891232547E-01  1.0856701206071E-01
   173  1.7200000000000E+00 -2.9397661122557E-01  8.3049524512875E-02
   174  1.7300000000000E+00 -2.8166985264771E-01  5.7944408453069E-02
   175  1.7400000000000E+00 -2.6926250690170E-01  3.3278268607830E-02
   176  1.7500000000000E+00 -2.5677867620711E-01  9.0780730719292E-03
   177  1.7600000000000E+00 -2.4424266997897E-01 -1.4628849905848E-02
   178  1.7700000000000E+00 -2.3167897477715E-01 -3.7814828821264E-02
   179  1.7800000000000E+00 -2.1911221872461E-01 -6.0451880079914E-02
   180  1.7900000000000E+00 -2.0656713025178E-01 -8.2511753882839E-02
   181  1.8000000000000E+00 -1.9406849107956E-01 -1.0396599515107E-01
   182  1.8100000000000E+00 -1.8164108341043E-01 -1.2478601966833E-01
   183  1.8200000000000E+00 -1.6930963135426E-01 -1.4494320547919E-01
   184  1.8300000000000E+00 -1.5709873667511E-01 -1.6440899943435E-01
   185  1.8400000000000E+00 -1.4503280900380E-01 -1.8315503862941E-01
   186  1.8500000000000E+00 -1.3313599071958E-01 -2.0115328633895E-01
   187  1.8600000000000E+00 -1.2143207676222E-01 -2.1837618190410E-01
   188  1.8700000000000E+00 -1.0994442969182E-01 -2.3479680389199E-01
   189  1.8800000000000E+00 -9.8695890368387E-02 -2.5038904570994E-01
   190  1.8900000000000E+00 -8.7708684674726E-02 -2.6512780272728E-01
   191  1.9000000000000E+00 -7.7004326755227E-02 -2.7898916983505E-01
   192  1.9100000000000E+00 -6.6603519288612E-02 -2.9195064825871E-01
   193  1.9200000000000E+00 -5.6526051354314E-02 -3.0399136033293E-01
   194  1.9300000000000E+00 -4.6790694488583E-02 -3.1509227085423E-01
   195  1.9400000000000E+00 -3.7415097560100E-02 -3.2523641353959E-01
   196  1.9500000000000E+00 -2.8415681121243E-02 -3.3440912104972E-01
   197  1.9600000000000E+00 -1.9807531913580E-02 -3.4259825697476E-01
   198  1.9700000000000E+00 -1.1604298222433E-02 -3.4979444813467E-01
   199  1.9800000000000E+00 -3.8180867859458E-03 -3.5599131551391E-01
   200  1.9900000000000E+00  3.5406381554626E-03 -3.6118570250263E-01
   201  2.0000000000000E+00  1.0463153042942E-02 -3.6537789894985E-01
   202  2.0100000000000E+00  1.6942561771349E-02 -3.6857183587042E-01
   203  2.0200000000000E+00  2.2973916103947E-02 -3.7077538510964E-01
   204  2.0300000000000E+00  2.8554155846409E-02 -3.7200012611625E-01
   205  2.0400000000000E+00  3.3681831496293E-02 -3.7226048086991E-01
   206  2.0500000000000E+00  3.8356867335893E-02 -3.7157300088353E-01
   207  2.0600000000000E+00  4.2580602213168E-02 -3.6995649929560E-01
   208  2.0700000000000E+00  4.6355812728288E-02 -3.6743213585683E-01
   209  2.0800000000000E+00  4.9686730213186E-02 -3.6402348895964E-01
   210  2.0900000000000E+00  5.2579050168517E-02 -3.5975661112050E-01
   211  2.1000000000000E+00  5.5039934075014E-02 -3.5466006770135E-01
   212  2.1100000000000E+00  5.7078002735423E-02 -3.4876495643588E-01
   213  2.1200000000000E+00  5.8703321033373E-02 -3.4210490747374E-01
   214  2.1300000000000E+00  5.9927373933565E-02 -3.3471606342256E-01
   215  2.1400000000000E+00  6.0763033610348E-02 -3.2663703901461E-01
   216  2.1500000000000E+00  6.1224517665123E-02 -3.1790886019817E-01
   217  2.1600000000000E+00  6.1327338458228E-02 -3.0857488260716E-01
   218  2.1700000000000E+00  6.1088243655921E-02 -2.9868068954027E-01
   219  2.1800000000000E+00  6.0525148165229E-02 -2.8827396975133E-01
   220  2.1900000000000E+00  5.9657057697316E-02 -2.7740437551404E-01
   221  2.2000000000000E+00  5.8503984274622E-02 -2.6612336160129E-01
   222  2.2100000000000E+00  5.7086854054552E-02 -2.5448400595632E-01
   223  2.2200000000000E+00  5.5427407924305E-02 -2.4254081302825E-01
   224  2.2300000000000E+00  5.3548095371779E-02 -2.3034950086467E-01
   225  2.2400000000000E+00  5.1471962206958E-02 -2.1796677322078E-01
   226  2.2500000000000E+00  4.9222532750602E-02 -2.0545007804629E-01
   227  2.2600000000000E+00  4.6823687176696E-02 -1.9285735387907E-01
   228  2.2700000000000E+00  4.4299534728735E-02 -1.8024676575614E-01
   229  2.2800000000000E+00  4.1674283579098E-02 -1.6767643237230E-01
   230  2.2900000000000E+00  3.8972108127697E-02 -1.5520414628245E-01
   231  2.3000000000000E+00  3.6217014579738E-02 -1.4288708905108E-01
   232  2.3100000000000E+00  3.3432705656001E-02 -1.3078154328760E-01
   233  2.3200000000000E+00  3.0642445309401E-02 -1.1894260355787E-01
   234  2.3300000000000E+00  2.7868924686423E-02 -1.0742388904910E-01
   235  2.3400000000000E+00  2.5134128569733E-02 -9.6277256016188E-02
   236  2.3500000000000E+00  2.2459200398509E-02 -8.5552505440162E-02
   237  2.3600000000000E+00  1.9864341412313E-02 -7.5297170301702E-02
   238  2.3700000000000E+00  1.7368647659250E-02 -6.5556155846498E-02
   239  2.3800000000000E+00  1.4989860375793E-02 -5.6371161087219E-02
   240  2.3900000000000E+00  1.2743678177043E-02 -4.7779018214823E-02
   241  2.4000000000000E+00  1.0644996113431E-02 -3.9814724233420E-02
   242  2.4100000000000E+00  8.7080393278319E-03 -3.2511805232469E-02
   243  2.4200000000000E+00  6.9452047973065E-03 -2.5899558347973E-02
   244  2.4300000000000E+00  5.3671793322795E-03 -2.0003346172126E-02
   245  2.4400000000000E+00  3.9828547487578E-03 -1.4844404073617E-02
   246  2.4500000000000E+00  2.7992696650262E-03 -1.0439711186720E-02
   247  2.4600000000000E+00  1.8218023354889E-03 -6.8028018278704E-03
   248  2.4700000000000E+00  1.0531904790232E-03 -3.9400891009641E-03
   249  2.4800000000000E+00  4.9150344660251E-04 -1.8432526792197E-03
   250  2.4900000000000E+00  1.5044340055847E-04 -5.6603149118707E-04
   251  2.5000000000000E+00  1.0570295863340E-05 -3.9927441808917E-05
   252  2.5100000000000E+00 -1.0002339789115E-05  3.7817085348938E-05
   253  2.5200000000000E+00  2.3188721961908E-06 -8.7413737724207E-06
   254  2.53  0. -0.
   255  2.54 -0.  0.
   256  2.55 -0.  0.
   257  2.56 -0.  0.
   258  2.57  0.  0.
   259  2.58  0.  0.
   260  2.59  0.  0.
   261  2.60  0.  0.
   262  2.61  0.  0.
   263  2.62  0.  0.
   264  2.63  0.  0.
   265  2.64  0.  0.
   266  2.65  0.  0.
   267  2.66  0.  0.
   268  2.67  0.  0.
   269  2.68  0.  0.
   270  2.69  0.  0.
   271  2.70  0.  0.
   272  2.71  0.  0.
   273  2.72  0.  0.
   274  2.73  0.  0.
   275  2.74  0.  0.
   276  2.75  0.  0.
   277  2.76  0.  0.
   278  2.77  0.  0.
   279  2.78  0.  0.
   280  2.79  0.  0.
   281  2.80  0.  0.
   282  2.81  0.  0.
   283  2.82  0.  0.
   284  2.83  0.  0.
   285  2.84  0.  0.
   286  2.85  0.  0.
   287  2.86  0.  0.
   288  2.87  0.  0.
   289  2.88  0.  0.
   290  2.89  0.  0.
   291  2.90  0.  0.
   292  2.91  0.  0.
   293  2.92  0.  0.
   294  2.93  0.  0.
   295  2.94  0.  0.
   296  2.95  0.  0.
   297  2.96  0.  0.
   298  2.97  0.  0.
   299  2.98  0.  0.
   300  2.99  0.  0.
   301  3.00  0.  0.
   302  3.01  0.  0.
   303  3.02  0.  0.
   304  3.03  0.  0.
   305  3.04  0.  0.
   306  3.05  0.  0.
   307  3.06  0.  0.
   308  3.07  0.  0.
   309  3.08  0.  0.
   310  3.09  0.  0.
   311  3.10  0.  0.
   312  3.11  0.  0.
   313  3.12  0.  0.
   314  3.13  0.  0.
   315  3.14  0.  0.
   316  3.15  0.  0.
   317  3.16  0.  0.
   318  3.17  0.  0.
   319  3.18  0.  0.
   320  3.19  0.  0.
   321  3.20  0.  0.
   322  3.21  0.  0.
   323  3.22  0.  0.
   324  3.23  0.  0.
   325  3.24  0.  0.
   326  3.25  0.  0.
   327  3.26  0.  0.
   328  3.27  0.  0.
   329  3.28  0.  0.
   330  3.29  0.  0.
   331  3.30  0.  0.
   332  3.31  0.  0.
   333  3.32  0.  0.
   334  3.33  0.  0.
   335  3.34  0.  0.
   336  3.35  0.  0.
   337  3.36  0.  0.
   338  3.37  0.  0.
   339  3.38  0.  0.
   340  3.39  0.  0.
   341  3.40  0.  0.
   342  3.41  0.  0.
   343  3.42  0.  0.
   344  3.43  0.  0.
   345  3.44  0.  0.
   346  3.45  0.  0.
   347  3.46  0.  0.
   348  3.47  0.  0.
   349  3.48  0.  0.
   350  3.49  0.  0.
   351  3.50  0.  0.
   352  3.51  0.  0.
   353  3.52  0.  0.
   354  3.53  0.  0.
   355  3.54  0.  0.
   356  3.55  0.  0.
   357  3.56  0.  0.
   358  3.57  0.  0.
   359  3.58  0.  0.
   360  3.59  0.  0.
   361  3.60  0.  0.
   362  3.61  0.  0.
   363  3.62  0.  0.
   364  3.63  0.  0.
   365  3.64  0.  0.
   366  3.65  0.  0.
   367  3.66  0.  0.
   368  3.67  0.  0.
   369  3.68  0.  0.
   370  3.69  0.  0.
   371  3.70  0.  0.
   372  3.71  0.  0.
   373  3.72  0.  0.
   374  3.73  0.  0.
   375  3.74  0.  0.
   376  3.75  0.  0.
   377  3.76  0.  0.
   378  3.77  0.  0.
   379  3.78  0.  0.
   380  3.79  0.  0.
   381  3.80  0.  0.
   382  3.81  0.  0.
   383  3.82  0.  0.
   384  3.83  0.  0.
   385  3.84  0.  0.
   386  3.85  0.  0.
   387  3.86  0.  0.
   388  3.87  0.  0.
   389  3.88  0.  0.
   390  3.89  0.  0.
   391  3.90  0.  0.
   392  3.91  0.  0.
   393  3.92  0.  0.
   394  3.93  0.  0.
   395  3.94  0.  0.
   396  3.95  0.  0.
   397  3.96  0.  0.
   398  3.97  0.  0.
   399  3.98  0.  0.
   400  3.99  0.  0.
   401  4.00  0.  0.
   402  4.01  0.  0.
   403  4.02  0.  0.
   404  4.03  0.  0.
   405  4.04  0.  0.
   406  4.05  0.  0.
   407  4.06  0.  0.
   408  4.07  0.  0.
   409  4.08  0.  0.
   410  4.09  0.  0.
   411  4.10  0.  0.
   412  4.11  0.  0.
   413  4.12  0.  0.
   414  4.13  0.  0.
   415  4.14  0.  0.
   416  4.15  0.  0.
   417  4.16  0.  0.
   418  4.17  0.  0.
   419  4.18  0.  0.
   420  4.19  0.  0.
   421  4.20  0.  0.
   422  4.21  0.  0.
   423  4.22  0.  0.
   424  4.23  0.  0.
   425  4.24  0.  0.
   426  4.25  0.  0.
   427  4.26  0.  0.
   428  4.27  0.  0.
   429  4.28  0.  0.
   430  4.29  0.  0.
   431  4.30  0.  0.
   432  4.31  0.  0.
   433  4.32  0.  0.
   434  4.33  0.  0.
   435  4.34  0.  0.
   436  4.35  0.  0.
   437  4.36  0.  0.
   438  4.37  0.  0.
   439  4.38  0.  0.
   440  4.39  0.  0.
   441  4.40  0.  0.
   442  4.41  0.  0.
   443  4.42  0.  0.
   444  4.43  0.  0.
   445  4.44  0.  0.
   446  4.45  0.  0.
   447  4.46  0.  0.
   448  4.47  0.  0.
   449  4.48  0.  0.
   450  4.49  0.  0.
   451  4.50  0.  0.
   452  4.51  0.  0.
   453  4.52  0.  0.
   454  4.53  0.  0.
   455  4.54  0.  0.
   456  4.55  0.  0.
   457  4.56  0.  0.
   458  4.57  0.  0.
   459  4.58  0.  0.
   460  4.59  0.  0.
   461  4.60  0.  0.
   462  4.61  0.  0.
   463  4.62  0.  0.
   464  4.63  0.  0.
   465  4.64  0.  0.
   466  4.65  0.  0.
   467  4.66  0.  0.
   468  4.67  0.  0.
   469  4.68  0.  0.
   470  4.69  0.  0.
   471  4.70  0.  0.
   472  4.71  0.  0.
   473  4.72  0.  0.
   474  4.73  0.  0.
   475  4.74  0.  0.
   476  4.75  0.  0.
   477  4.76  0.  0.
   478  4.77  0.  0.
   479  4.78  0.  0.
   480  4.79  0.  0.
   481  4.80  0.  0.
   482  4.81  0.  0.
   483  4.82  0.  0.
   484  4.83  0.  0.
   485  4.84  0.  0.
   486  4.85  0.  0.
   487  4.86  0.  0.
   488  4.87  0.  0.
   489  4.88  0.  0.
   490  4.89  0.  0.
   491  4.90  0.  0.
   492  4.91  0.  0.
   493  4.92  0.  0.
   494  4.93  0.  0.
   495  4.94  0.  0.
   496  4.95  0.  0.
   497  4.96  0.  0.
   498  4.97  0.  0.
   499  4.98  0.  0.
   500  4.99  0.  0.
   501  5.00  0.  0.
   502  5.01  0.  0.
   503  5.02  0.  0.
   504  5.03  0.  0.
   505  5.04  0.  0.
   506  5.05  0.  0.
   507  5.06  0.  0.
   508  5.07  0.  0.
   509  5.08  0.  0.
   510  5.09  0.  0.
   511  5.10  0.  0.
   512  5.11  0.  0.
   513  5.12  0.  0.
   514  5.13  0.  0.
   515  5.14  0.  0.
   516  5.15  0.  0.
   517  5.16  0.  0.
   518  5.17  0.  0.
   519  5.18  0.  0.
   520  5.19  0.  0.
   521  5.20  0.  0.
   522  5.21  0.  0.
   523  5.22  0.  0.
   524  5.23  0.  0.
   525  5.24  0.  0.
   526  5.25  0.  0.
   527  5.26  0.  0.
   528  5.27  0.  0.
   529  5.28  0.  0.
   530  5.29  0.  0.
   531  5.30  0.  0.
   532  5.31  0.  0.
   533  5.32  0.  0.
   534  5.33  0.  0.
   535  5.34  0.  0.
   536  5.35  0.  0.
   537  5.36  0.  0.
   538  5.37  0.  0.
   539  5.38  0.  0.
   540  5.39  0.  0.
   541  5.40  0.  0.
   542  5.41  0.  0.
   543  5.42  0.  0.
   544  5.43  0.  0.
   545  5.44  0.  0.
   546  5.45  0.  0.
   547  5.46  0.  0.
   548  5.47  0.  0.
   549  5.48  0.  0.
   550  5.49  0.  0.
   551  5.50  0.  0.
   552  5.51  0.  0.
   553  5.52  0.  0.
   554  5.53  0.  0.
   555  5.54  0.  0.
   556  5.55  0.  0.
   557  5.56  0.  0.
   558  5.57  0.  0.
   559  5.58  0.  0.
   560  5.59  0.  0.
   561  5.60  0.  0.
   562  5.61  0.  0.
   563  5.62  0.  0.
   564  5.63  0.  0.
   565  5.64  0.  0.
   566  5.65  0.  0.
   567  5.66  0.  0.
   568  5.67  0.  0.
   569  5.68  0.  0.
   570  5.69  0.  0.
   571  5.70  0.  0.
   572  5.71  0.  0.
   573  5.72  0.  0.
   574  5.73  0.  0.
   575  5.74  0.  0.
   576  5.75  0.  0.
   577  5.76  0.  0.
   578  5.77  0.  0.
   579  5.78  0.  0.
   580  5.79  0.  0.
   581  5.80  0.  0.
   582  5.81  0.  0.
   583  5.82  0.  0.
   584  5.83  0.  0.
   585  5.84  0.  0.
   586  5.85  0.  0.
   587  5.86  0.  0.
   588  5.87  0.  0.
   589  5.88  0.  0.
   590  5.89  0.  0.
   591  5.90  0.  0.
   592  5.91  0.  0.
   593  5.92  0.  0.
   594  5.93  0.  0.
   595  5.94  0.  0.
   596  5.95  0.  0.
   597  5.96  0.  0.
   598  5.97  0.  0.
   599  5.98  0.  0.
   600  5.99  0.  0.
   1                         1.2697670931232E+00 -6.0326971252323E-02
     1  0.0000000000000E+00 -3.9661621209497E-11 -3.5460301188450E-10
     2  1.0000000000000E-02  7.1970051481741E-04  2.0219835392554E-04
     3  2.0000000000000E-02  2.8774491539304E-03  8.0961237582645E-04
     4  3.0000000000000E-02  6.4691877684596E-03  1.8246814792744E-03
     5  4.0000000000000E-02  1.1488154689342E-02  3.2514133232490E-03
     6  5.0000000000000E-02  1.7924887672314E-02  5.0952974392813E-03
     7  6.0000000000000E-02  2.5767228172770E-02  7.3631856477044E-03
     8  7.0000000000000E-02  3.5000327100071E-02  1.0063140586442E-02
     9  8.0000000000000E-02  4.5606652240508E-02  1.3204254030363E-02
    10  9.0000000000000E-02  5.7565997575370E-02  1.6796437020271E-02
    11  1.0000000000000E-01  7.0855494754987E-02  2.0850184139861E-02
    12  1.1000000000000E-01  8.5449627020760E-02  2.5376314576411E-02
    13  1.2000000000000E-01  1.0132024589487E-01  3.0385692873322E-02
    14  1.3000000000000E-01  1.1843659098060E-01  3.5888932525261E-02
    15  1.4000000000000E-01  1.3676531323556E-01  4.1896085780404E-02
    16  1.5000000000000E-01  1.5627050209437E-01  4.8416323193362E-02
    17  1.6000000000000E-01  1.7691371682688E-01  5.5457606618340E-02
    18  1.7000000000000E-01  1.9865402252257E-01  6.3026359440956E-02
    19  1.8000000000000E-01  2.2144803109072E-01  7.1127137918733E-02
    20  1.9000000000000E-01  2.4524994765969E-01  7.9762307534292E-02
    21  2.0000000000000E-01  2.7001162274733E-01  8.8931728259894E-02
    22  2.1000000000000E-01  2.9568261055704E-01  9.8632452588428E-02
    23  2.2000000000000E-01  3.2221023373205E-01  1.0885844010365E-01
    24  2.3000000000000E-01  3.4953965487281E-01  1.1960029224220E-01
    25  2.4000000000000E-01  3.7761395508960E-01  1.3084501074301E-01
    26  2.5000000000000E-01  4.0637421982548E-01  1.4257578308716E-01
    27  2.6000000000000E-01  4.3575963214239E-01  1.5477179800437E-01
    28  2.7000000000000E-01  4.6570757361736E-01  1.6740809386429E-01
    29  2.8000000000000E-01  4.9615373294576E-01  1.8045544248203E-01
    30  2.9000000000000E-01  5.2703222229511E-01  1.9388027055254E-01
    31  3.0000000000000E-01  5.5827570139676E-01  2.0764462058877E-01
    32  3.1000000000000E-01  5.8981550930377E-01  2.2170615287774E-01
    33  3.2000000000000E-01  6.2158180368274E-01  2.3601818959001E-01
    34  3.3000000000000E-01  6.5350370744493E-01  2.5052980178538E-01
    35  3.4000000000000E-01  6.8550946245917E-01  2.6518593965287E-01
    36  3.5000000000000E-01  7.1752659002534E-01  2.7992760591300E-01
    37  3.6000000000000E-01  7.4948205772466E-01  2.9469207189540E-01
    38  3.7000000000000E-01  7.8130245220025E-01  3.0941313539111E-01
    39  3.8000000000000E-01  8.1291415736142E-01  3.2402141897002E-01
    40  3.9000000000000E-01  8.4424353744578E-01  3.3844470705218E-01
    41  4.0000000000000E-01  8.7521712431805E-01  3.5260831963354E-01
    42  4.1000000000000E-01  9.0576180833120E-01  3.6643552019291E-01
    43  4.2000000000000E-01  9.3580503202659E-01  3.7984795495343E-01
    44  4.3000000000000E-01  9.6527498590537E-01  3.9276612034082E-01
    45  4.4000000000000E-01  9.9410080546283E-01  4.0510985517555E-01
    46  4.5000000000000E-01  1.0222127686430E+00  4.1679885386038E-01
    47  4.6000000000000E-01  1.0495424928415E+00  4.2775319657999E-01
    48  4.7000000000000E-01  1.0760231305603E+00  4.3789389232000E-01
    49  4.8000000000000E-01  1.1015895628030E+00  4.4714343033870E-01
    50  4.9000000000000E-01  1.1261785892862E+00  4.5542633558961E-01
    51  5.0000000000000E-01  1.1497291145397E+00  4.6266972349749E-01
    52  5.1000000000000E-01  1.1721823289726E+00  4.6880384943587E-01
    53  5.2000000000000E-01  1.1934818839877E+00  4.7376264824091E-01
    54  5.3000000000000E-01  1.2135740602499E+00  4.7748425912611E-01
    55  5.4000000000000E-01  1.2324079282304E+00  4.7991153143353E-01
    56  5.5000000000000E-01  1.2499355001862E+00  4.8099250676995E-01
    57  5.6000000000000E-01  1.2661118727651E+00  4.8068087323138E-01
    58  5.7000000000000E-01  1.2808953594752E+00  4.7893638761277E-01
    59  5.8000000000000E-01  1.2942476123027E+00  4.7572526173233E-01
    60  5.9000000000000E-01  1.3061337318214E+00  4.7102050926944E-01
    61  6.0000000000000E-01  1.3165223651958E+00  4.6480224981778E-01
    62  6.1000000000000E-01  1.3253857915458E+00  4.5705796719130E-01
    63  6.2000000000000E-01  1.3326999942120E+00  4.4778271938436E-01
    64  6.3000000000000E-01  1.3384447195355E+00  4.3697929797770E-01