Y     ONCVPSP-4.0.1  r_core=   2.25543   2.11179   2.40883
     39.0000     11.0000      230118    zatom,zion,pspd
     8       2   2     4   600     0    pspcod,pspxc,lmax,lloc,mmax,r2well
  5.99000000  4.00000000  0.00000000    rchrg fchrg qchrg
     2     2     2     0     0    nproj
     1     1           extension_switch
   0                         2.6804584252210E+00 -9.2987741158828E-02
     1  0.0000000000000E+00  3.7730929491886E-12  7.6308515062351E-11
     2  1.0000000000000E-02  4.4779119990888E-02  2.4377478610736E-02
     3  2.0000000000000E-02  8.9508279199272E-02  4.8720800271269E-02
     4  3.0000000000000E-02  1.3413757439877E-01  7.2995687281165E-02
     5  4.0000000000000E-02  1.7861721749666E-01  9.7167622462813E-02
     6  5.0000000000000E-02  2.2289759315325E-01  1.2120173446151E-01
     7  6.0000000000000E-02  2.6692931646158E-01  1.4506268903755E-01
     8  7.0000000000000E-02  3.1066329070316E-01  1.6871458825732E-01
     9  8.0000000000000E-02  3.5405076519153E-01  1.9212087941424E-01
    10  9.0000000000000E-02  3.9704339321081E-01  2.1524427541607E-01
    11  1.0000000000000E-01  4.3959329005111E-01  2.3804668826387E-01
    12  1.1000000000000E-01  4.8165309113603E-01  2.6048917712093E-01
    13  1.2000000000000E-01  5.2317601023089E-01  2.8253191232744E-01
    14  1.3000000000000E-01  5.6411589771234E-01  3.0413415656100E-01
    15  1.4000000000000E-01  6.0442729887218E-01  3.2525426417482E-01
    16  1.5000000000000E-01  6.4406551221908E-01  3.4584969956632E-01
    17  1.6000000000000E-01  6.8298664773319E-01  3.6587707524031E-01
    18  1.7000000000000E-01  7.2114768501898E-01  3.8529221003505E-01
    19  1.8000000000000E-01  7.5850653129201E-01  4.0405020777733E-01
    20  1.9000000000000E-01  7.9502207912578E-01  4.2210555642650E-01
    21  2.0000000000000E-01  8.3065426387468E-01  4.3941224755891E-01
    22  2.1000000000000E-01  8.6536412067972E-01  4.5592391583520E-01
    23  2.2000000000000E-01  8.9911384095393E-01  4.7159399788496E-01
    24  2.3000000000000E-01  9.3186682823519E-01  4.8637590983909E-01
    25  2.4000000000000E-01  9.6358775328537E-01  5.0022324254040E-01
    26  2.5000000000000E-01  9.9424260830627E-01  5.1308997327046E-01
    27  2.6000000000000E-01  1.0237987601351E+00  5.2493069264647E-01
    28  2.7000000000000E-01  1.0522250022749E+00  5.3570084516800E-01
    29  2.8000000000000E-01  1.0794916056090E+00  5.4535698173124E-01
    30  2.9000000000000E-01  1.1055703676438E+00  5.5385702227972E-01
    31  3.0000000000000E-01  1.1304346601172E+00  5.6116052662589E-01
    32  3.1000000000000E-01  1.1540594748097E+00  5.6722897136019E-01
    33  3.2000000000000E-01  1.1764214673896E+00  5.7202603066253E-01
    34  3.3000000000000E-01  1.1974989991236E+00  5.7551785874854E-01
    35  3.4000000000000E-01  1.2172721762834E+00  5.7767337161823E-01
    36  3.5000000000000E-01  1.2357228870794E+00  5.7846452573060E-01
    37  3.6000000000000E-01  1.2528348359547E+00  5.7786659120278E-01
    38  3.7000000000000E-01  1.2685935750763E+00  5.7585841712886E-01
    39  3.8000000000000E-01  1.2829865328626E+00  5.7242268662969E-01
    40  3.9000000000000E-01  1.2960030393955E+00  5.6754615928278E-01
    41  4.0000000000000E-01  1.3076343485674E+00  5.6121989863888E-01
    42  4.1000000000000E-01  1.3178736568261E+00  5.5343948261032E-01
    43  4.2000000000000E-01  1.3267161183864E+00  5.4420519461340E-01
    44  4.3000000000000E-01  1.3341588567881E+00  5.3352219346407E-01
    45  4.4000000000000E-01  1.3402009726916E+00  5.2140066016107E-01
    46  4.5000000000000E-01  1.3448435478150E+00  5.0785591984213E-01
    47  4.6000000000000E-01  1.3480896449277E+00  4.9290853736736E-01
    48  4.7000000000000E-01  1.3499443038323E+00  4.7658438516601E-01
    49  4.8000000000000E-01  1.3504145332771E+00  4.5891468217883E-01
    50  4.9000000000000E-01  1.3495092987630E+00  4.3993600293591E-01
    51  5.0000000000000E-01  1.3472395062167E+00  4.1969025602742E-01
    52  5.1000000000000E-01  1.3436179815255E+00  3.9822463145049E-01
    53  5.2000000000000E-01  1.3386594459416E+00  3.7559151654802E-01
    54  5.3000000000000E-01  1.3323804873811E+00  3.5184838049248E-01
    55  5.4000000000000E-01  1.3247995276619E+00  3.2705762750716E-01
    56  5.5000000000000E-01  1.3159367857401E+00  3.0128641925808E-01
    57  5.6000000000000E-01  1.3058142370209E+00  2.7460646708892E-01
    58  5.7000000000000E-01  1.2944555688392E+00  2.4709379500718E-01
    59  5.8000000000000E-01  1.2818861322190E+00  2.1882847456062E-01
    60  5.9000000000000E-01  1.2681328900377E+00  1.8989433296692E-01
    61  6.0000000000000E-01  1.2532243617377E+00  1.6037863607332E-01
    62  6.1000000000000E-01  1.2371905647397E+00  1.3037174792763E-01
    63  6.2000000000000E-01  1.2200629527299E+00  9.9966768932391E-02
    64  6.3000000000000E-01  1.2018743510032E+00  6.9259154731202E-02
    65  6.4000000000000E-01  1.1826588890578E+00  3.8346318137465E-02
    66  6.5000000000000E-01  1.1624519306483E+00  7.3272165590976E-03
    67  6.6000000000000E-01  1.1412900015138E+00 -2.3698072500762E-02
    68  6.7000000000000E-01  1.1192107150058E+00 -5.4628785182264E-02
    69  6.8000000000000E-01  1.0962526958490E+00 -8.5363911475401E-02
    70  6.9000000000000E-01  1.0724555022758E+00 -1.1580263906040E-01
    71  7.0000000000000E-01  1.0478595467755E+00 -1.4584479790508E-01
    72  7.1000000000000E-01  1.0225060157097E+00 -1.7539130272317E-01
    73  7.2000000000000E-01  9.9643678804100E-01 -2.0434459040064E-01
    74  7.3000000000000E-01  9.6969435342719E-01 -2.3260904952312E-01
    75  7.4000000000000E-01  9.4232172993146E-01 -2.6009143918645E-01
    76  7.5000000000000E-01  9.1436238159597E-01 -2.8670129434283E-01
    77  7.6000000000000E-01  8.8586013612461E-01 -3.1235131502900E-01
    78  7.7000000000000E-01  8.5685910291506E-01 -3.3695773693640E-01
    79  7.8000000000000E-01  8.2740359167468E-01 -3.6044068091824E-01
    80  7.9000000000000E-01  7.9753803184775E-01 -3.8272447918254E-01
    81  8.0000000000000E-01  7.6730689307305E-01 -4.0373797609234E-01
    82  8.1000000000000E-01  7.3675460688147E-01 -4.2341480168360E-01
    83  8.2000000000000E-01  7.0592548983309E-01 -4.4169361621547E-01
    84  8.3000000000000E-01  6.7486366828167E-01 -4.5851832428632E-01
    85  8.4000000000000E-01  6.4361300494221E-01 -4.7383825727883E-01
    86  8.5000000000000E-01  6.1221702742478E-01 -4.8760832313800E-01
    87  8.6000000000000E-01  5.8071885888373E-01 -4.9978912273465E-01
    88  8.7000000000000E-01  5.4916115091774E-01 -5.1034703232154E-01
    89  8.8000000000000E-01  5.1758601884150E-01 -5.1925425184868E-01
    90  8.9000000000000E-01  4.8603497943511E-01 -5.2648881916450E-01
    91  9.0000000000000E-01  4.5454889126232E-01 -5.3203459039133E-01
    92  9.1000000000000E-01  4.2316789763380E-01 -5.3588118702128E-01
    93  9.2000000000000E-01  3.9193137227643E-01 -5.3802391053278E-01
    94  9.3000000000000E-01  3.6087786775525E-01 -5.3846362557589E-01
    95  9.4000000000000E-01  3.3004506667972E-01 -5.3720661301241E-01
    96  9.5000000000000E-01  2.9946973571220E-01 -5.3426439432560E-01
    97  9.6000000000000E-01  2.6918768238281E-01 -5.2965352912965E-01
    98  9.7000000000000E-01  2.3923371470171E-01 -5.2339538770978E-01
    99  9.8000000000000E-01  2.0964160354783E-01 -5.1551590070901E-01
   100  9.9000000000000E-01  1.8044404780109E-01 -5.0604528824510E-01
   101  1.0000000000000E+00  1.5167264217497E-01 -4.9501777088883E-01
   102  1.0100000000000E+00  1.2335784769607E-01 -4.8247126506249E-01
   103  1.0200000000000E+00  9.5528964768927E-02 -4.6844706552369E-01
   104  1.0300000000000E+00  6.8214108756307E-02 -4.5298951768281E-01
   105  1.0400000000000E+00  4.1440187998876E-02 -4.3614568256308E-01
   106  1.0500000000000E+00  1.5232884192408E-02 -4.1796499724797E-01
   107  1.0600000000000E+00 -1.0383364963574E-02 -3.9849893367388E-01
   108  1.0700000000000E+00 -3.5385380934983E-02 -3.7780065861266E-01
   109  1.0800000000000E+00 -5.9751257431601E-02 -3.5592469765325E-01
   110  1.0900000000000E+00 -8.3460371487019E-02 -3.3292660593029E-01
   111  1.1000000000000E+00 -1.0649339263209E-01 -3.0886264826404E-01
   112  1.1100000000000E+00 -1.2883229025268E-01 -2.8378949126834E-01
   113  1.1200000000000E+00 -1.5046033922007E-01 -2.5776390985467E-01
   114  1.1300000000000E+00 -1.7136212387900E-01 -2.3084251040974E-01
   115  1.1400000000000E+00 -1.9152354047413E-01 -2.0308147275432E-01
   116  1.1500000000000E+00 -2.1093179809034E-01 -1.7453631280246E-01
   117  1.1600000000000E+00 -2.2957541817664E-01 -1.4526166763492E-01
   118  1.1700000000000E+00 -2.4744423271650E-01 -1.1531110448058E-01
   119  1.1800000000000E+00 -2.6452938110031E-01 -8.4736954865748E-02
   120  1.1900000000000E+00 -2.8082330574795E-01 -5.3590174946486E-02
   121  1.2000000000000E+00 -2.9631974652117E-01 -2.1920232785161E-02
   122  1.2100000000000E+00 -3.1101373395704E-01  1.0224976928779E-02
   123  1.2200000000000E+00 -3.2490158134520E-01  4.2799190479061E-02
   124  1.2300000000000E+00 -3.3798087566270E-01  7.5757805078344E-02
   125  1.2400000000000E+00 -3.5025046737178E-01  1.0905788148098E-01
   126  1.2500000000000E+00 -3.6171045907733E-01  1.4265811982138E-01
   127  1.2600000000000E+00 -3.7236219303242E-01  1.7651880950791E-01
   128  1.2700000000000E+00 -3.8220823747267E-01  2.1060175425606E-01
   129  1.2800000000000E+00 -3.9125237175276E-01  2.4487017359132E-01
   130  1.2900000000000E+00 -3.9949957025148E-01  2.7928858238595E-01
   131  1.3000000000000E+00 -4.0695598500602E-01  3.1382265021340E-01
   132  1.3100000000000E+00 -4.1362892703052E-01  3.4843904251117E-01
   133  1.3200000000000E+00 -4.1952684626984E-01  3.8310524572951E-01
   134  1.3300000000000E+00 -4.2465931013588E-01  4.1778937881212E-01
   135  1.3400000000000E+00 -4.2903698057145E-01  4.5245999350369E-01
   136  1.3500000000000E+00 -4.3267158958525E-01  4.8708586610436E-01
   137  1.3600000000000E+00 -4.3557591320153E-01  5.2163578339412E-01
   138  1.3700000000000E+00 -4.3776374376867E-01  5.5607832552764E-01
   139  1.3800000000000E+00 -4.3924986057325E-01  5.9038164875382E-01
   140  1.3900000000000E+00 -4.4004999870958E-01  6.2451327084013E-01
   141  1.4000000000000E+00 -4.4018081615898E-01  6.5843986208301E-01
   142  1.4100000000000E+00 -4.3965985903923E-01  6.9212704475949E-01
   143  1.4200000000000E+00 -4.3850552499117E-01  7.2553920382284E-01
   144  1.4300000000000E+00 -4.3673702467778E-01  7.5863931156602E-01
   145  1.4400000000000E+00 -4.3437434138021E-01  7.9138876887277E-01
   146  1.4500000000000E+00 -4.3143818868528E-01  8.2374726554639E-01
   147  1.4600000000000E+00 -4.2794996627048E-01  8.5567266205290E-01
   148  1.4700000000000E+00 -4.2393171380427E-01  8.8712089483923E-01
   149  1.4800000000000E+00 -4.1940606299251E-01  9.1804590718832E-01
   150  1.4900000000000E+00 -4.1439618781554E-01  9.4839960735576E-01
   151  1.5000000000000E+00 -4.0892575301427E-01  9.7813185549585E-01
   152  1.5100000000000E+00 -4.0301886089875E-01  1.0071904806326E+00
   153  1.5200000000000E+00 -3.9669999656724E-01  1.0355213286639E+00
   154  1.5300000000000E+00 -3.8999397163929E-01  1.0630683421088E+00
   155  1.5400000000000E+00 -3.8292586662151E-01  1.0897736720169E+00
   156  1.5500000000000E+00 -3.7552097204003E-01  1.1155778221659E+00
   157  1.5600000000000E+00 -3.6780472848857E-01  1.1404198253686E+00
   158  1.5700000000000E+00 -3.5980266575573E-01  1.1642374514100E+00
   159  1.5800000000000E+00 -3.5154034120956E-01  1.1869674458292E+00
   160  1.5900000000000E+00 -3.4304327763061E-01  1.2085457984641E+00
   161  1.6000000000000E+00 -3.3433690069774E-01  1.2289080403783E+00
   162  1.6100000000000E+00 -3.2544647634285E-01  1.2479895675047E+00
   163  1.6200000000000E+00 -3.1639704820130E-01  1.2657259890658E+00
   164  1.6300000000000E+00 -3.0721337539471E-01  1.2820534985634E+00
   165  1.6400000000000E+00 -2.9791987089093E-01  1.2969092648888E+00
   166  1.6500000000000E+00 -2.8854054069322E-01  1.3102318408684E+00
   167  1.6600000000000E+00 -2.7909892411581E-01  1.3219615863567E+00
   168  1.6700000000000E+00 -2.6961803540709E-01  1.3320411027952E+00
   169  1.6800000000000E+00 -2.6012030698378E-01  1.3404156759940E+00
   170  1.6900000000000E+00 -2.5062753453980E-01  1.3470337237552E+00
   171  1.7000000000000E+00 -2.4116082429224E-01  1.3518472448424E+00
   172  1.7100000000000E+00 -2.3174054262348E-01  1.3548122657197E+00
   173  1.7200000000000E+00 -2.2238626837371E-01  1.3558892814249E+00
   174  1.7300000000000E+00 -2.1311674803052E-01  1.3550436869215E+00
   175  1.7400000000000E+00 -2.0394985405402E-01  1.3522461952734E+00
   176  1.7500000000000E+00 -1.9490254656475E-01  1.3474732390263E+00
   177  1.7600000000000E+00 -1.8599083860909E-01  1.3407073512445E+00
   178  1.7700000000000E+00 -1.7722976520273E-01  1.3319375227470E+00
   179  1.7800000000000E+00 -1.6863335633637E-01  1.3211595322157E+00
   180  1.7900000000000E+00 -1.6021461411022E-01  1.3083762460028E+00
   181  1.8000000000000E+00 -1.5198549414455E-01  1.2935978846471E+00
   182  1.8100000000000E+00 -1.4395689139263E-01  1.2768422533220E+00
   183  1.8200000000000E+00 -1.3613863046036E-01  1.2581349336724E+00
   184  1.8300000000000E+00 -1.2853946051371E-01  1.2375094347575E+00
   185  1.8400000000000E+00 -1.2116705483042E-01  1.2150073010982E+00
   186  1.8500000000000E+00 -1.1402801502730E-01  1.1906781761321E+00
   187  1.8600000000000E+00 -1.0712787996839E-01  1.1645798196934E+00
   188  1.8700000000000E+00 -1.0047113933268E-01  1.1367780784732E+00
   189  1.8800000000000E+00 -9.4061251792891E-02  1.1073468087605E+00
   190  1.8900000000000E+00 -8.7900667729668E-02  1.0763677511241E+00
   191  1.9000000000000E+00 -8.1990856378359E-02  1.0439303570542E+00
   192  1.9100000000000E+00 -7.6332337278252E-02  1.0101315679570E+00
   193  1.9200000000000E+00 -7.0924715867498E-02  9.7507554726049E-01
   194  1.9300000000000E+00 -6.5766723040709E-02  9.3887336676018E-01
   195  1.9400000000000E+00 -6.0856258460624E-02  9.0164264869755E-01
   196  1.9500000000000E+00 -5.6190437390781E-02  8.6350716541953E-01
   197  1.9600000000000E+00 -5.1765640792821E-02  8.2459639881008E-01
   198  1.9700000000000E+00 -4.7577568409350E-02  7.8504506202607E-01
   199  1.9800000000000E+00 -4.3621294533045E-02  7.4499258637907E-01
   200  1.9900000000000E+00 -3.9891326143343E-02  7.0458257650704E-01
   201  2.0000000000000E+00 -3.6381663074719E-02  6.6396223725624E-01
   202  2.0100000000000E+00 -3.3085859864952E-02  6.2328177595127E-01
   203  2.0200000000000E+00 -2.9997088918685E-02  5.8269378395437E-01
   204  2.0300000000000E+00 -2.7108204609890E-02  5.4235260162222E-01
   205  2.0400000000000E+00 -2.4411807937900E-02  5.0241367094103E-01
   206  2.0500000000000E+00 -2.1900311345005E-02  4.6303288025970E-01
   207  2.0600000000000E+00 -1.9566003299162E-02  4.2436590565337E-01
   208  2.0700000000000E+00 -1.7401112217688E-02  3.8656755448558E-01
   209  2.0800000000000E+00 -1.5397869330889E-02  3.4979111551913E-01
   210  2.0900000000000E+00 -1.3548571382723E-02  3.1418767514624E-01
   211  2.1000000000000E+00 -1.1845635710858E-02  2.7990565621901E-01
   212  2.1100000000000E+00 -1.0281672320982E-02  2.4708967793395E-01
   213  2.1200000000000E+00 -8.8495954678339E-03  2.1587799593361E-01
   214  2.1300000000000E+00 -7.5427208821132E-03  1.8640025263354E-01
   215  2.1400000000000E+00 -6.3548616019474E-03  1.5877630909408E-01
   216  2.1500000000000E+00 -5.2806412471644E-03  1.3311173968012E-01
   217  2.1600000000000E+00 -4.3155281701937E-03  1.0949732730495E-01
   218  2.1700000000000E+00 -3.4548371550255E-03  8.8024408231585E-02
   219  2.1800000000000E+00 -2.6945144399840E-03  6.8773956594729E-02
   220  2.1900000000000E+00 -2.0313324155514E-03  5.1813940715924E-02
   221  2.2000000000000E+00 -1.4628542634193E-03  3.7199888604130E-02
   222  2.2100000000000E+00 -9.8747129310060E-04  2.4974454382607E-02
   223  2.2200000000000E+00 -6.0460303665648E-04  1.5171459652076E-02
   224  2.2300000000000E+00 -3.1345362470574E-04  7.7862658567968E-03
   225  2.2400000000000E+00 -1.1588216139888E-04  2.8431630332710E-03
   226  2.2500000000000E+00 -1.8942982446473E-05  4.5745226634888E-04
   227  2.2600000000000E+00  4.4011808521825E-06 -1.0549779877651E-04
   228  2.2700000000000E+00 -4.0945554833773E-07  9.9035470481641E-06
   229  2.28 -0.  0.
   230  2.29  0. -0.
   231  2.30 -0. -0.
   232  2.31 -0. -0.
   233  2.32  0.  0.
   234  2.33  0.  0.
   235  2.34  0.  0.
   236  2.35  0.  0.
   237  2.36  0.  0.
   238  2.37  0.  0.
   239  2.38  0.  0.
   240  2.39  0.  0.
   241  2.40  0.  0.
   242  2.41  0.  0.
   243  2.42  0.  0.
   244  2.43  0.  0.
   245  2.44  0.  0.
   246  2.45  0.  0.
   247  2.46  0.  0.
   248  2.47  0.  0.
   249  2.48  0.  0.
   250  2.49  0.  0.
   251  2.50  0.  0.
   252  2.51  0.  0.
   253  2.52  0.  0.
   254  2.53  0.  0.
   255  2.54  0.  0.
   256  2.55  0.  0.
   257  2.56  0.  0.
   258  2.57  0.  0.
   259  2.58  0.  0.
   260  2.59  0.  0.
   261  2.60  0.  0.
   262  2.61  0.  0.
   263  2.62  0.  0.
   264  2.63  0.  0.
   265  2.64  0.  0.
   266  2.65  0.  0.
   267  2.66  0.  0.
   268  2.67  0.  0.
   269  2.68  0.  0.
   270  2.69  0.  0.
   271  2.70  0.  0.
   272  2.71  0.  0.
   273  2.72  0.  0.
   274  2.73  0.  0.
   275  2.74  0.  0.
   276  2.75  0.  0.
   277  2.76  0.  0.
   278  2.77  0.  0.
   279  2.78  0.  0.
   280  2.79  0.  0.
   281  2.80  0.  0.
   282  2.81  0.  0.
   283  2.82  0.  0.
   284  2.83  0.  0.
   285  2.84  0.  0.
   286  2.85  0.  0.
   287  2.86  0.  0.
   288  2.87  0.  0.
   289  2.88  0.  0.
   290  2.89  0.  0.
   291  2.90  0.  0.
   292  2.91  0.  0.
   293  2.92  0.  0.
   294  2.93  0.  0.
   295  2.94  0.  0.
   296  2.95  0.  0.
   297  2.96  0.  0.
   298  2.97  0.  0.
   299  2.98  0.  0.
   300  2.99  0.  0.
   301  3.00  0.  0.
   302  3.01  0.  0.
   303  3.02  0.  0.
   304  3.03  0.  0.
   305  3.04  0.  0.
   306  3.05  0.  0.
   307  3.06  0.  0.
   308  3.07  0.  0.
   309  3.08  0.  0.
   310  3.09  0.  0.
   311  3.10  0.  0.
   312  3.11  0.  0.
   313  3.12  0.  0.
   314  3.13  0.  0.
   315  3.14  0.  0.
   316  3.15  0.  0.
   317  3.16  0.  0.
   318  3.17  0.  0.
   319  3.18  0.  0.
   320  3.19  0.  0.
   321  3.20  0.  0.
   322  3.21  0.  0.
   323  3.22  0.  0.
   324  3.23  0.  0.
   325  3.24  0.  0.
   326  3.25  0.  0.
   327  3.26  0.  0.
   328  3.27  0.  0.
   329  3.28  0.  0.
   330  3.29  0.  0.
   331  3.30  0.  0.
   332  3.31  0.  0.
   333  3.32  0.  0.
   334  3.33  0.  0.
   335  3.34  0.  0.
   336  3.35  0.  0.
   337  3.36  0.  0.
   338  3.37  0.  0.
   339  3.38  0.  0.
   340  3.39  0.  0.
   341  3.40  0.  0.
   342  3.41  0.  0.
   343  3.42  0.  0.
   344  3.43  0.  0.
   345  3.44  0.  0.
   346  3.45  0.  0.
   347  3.46  0.  0.
   348  3.47  0.  0.
   349  3.48  0.  0.
   350  3.49  0.  0.
   351  3.50  0.  0.
   352  3.51  0.  0.
   353  3.52  0.  0.
   354  3.53  0.  0.
   355  3.54  0.  0.
   356  3.55  0.  0.
   357  3.56  0.  0.
   358  3.57  0.  0.
   359  3.58  0.  0.
   360  3.59  0.  0.
   361  3.60  0.  0.
   362  3.61  0.  0.
   363  3.62  0.  0.
   364  3.63  0.  0.
   365  3.64  0.  0.
   366  3.65  0.  0.
   367  3.66  0.  0.
   368  3.67  0.  0.
   369  3.68  0.  0.
   370  3.69  0.  0.
   371  3.70  0.  0.
   372  3.71  0.  0.
   373  3.72  0.  0.
   374  3.73  0.  0.
   375  3.74  0.  0.
   376  3.75  0.  0.
   377  3.76  0.  0.
   378  3.77  0.  0.
   379  3.78  0.  0.
   380  3.79  0.  0.
   381  3.80  0.  0.
   382  3.81  0.  0.
   383  3.82  0.  0.
   384  3.83  0.  0.
   385  3.84  0.  0.
   386  3.85  0.  0.
   387  3.86  0.  0.
   388  3.87  0.  0.
   389  3.88  0.  0.
   390  3.89  0.  0.
   391  3.90  0.  0.
   392  3.91  0.  0.
   393  3.92  0.  0.
   394  3.93  0.  0.
   395  3.94  0.  0.
   396  3.95  0.  0.
   397  3.96  0.  0.
   398  3.97  0.  0.
   399  3.98  0.  0.
   400  3.99  0.  0.
   401  4.00  0.  0.
   402  4.01  0.  0.
   403  4.02  0.  0.
   404  4.03  0.  0.
   405  4.04  0.  0.
   406  4.05  0.  0.
   407  4.06  0.  0.
   408  4.07  0.  0.
   409  4.08  0.  0.
   410  4.09  0.  0.
   411  4.10  0.  0.
   412  4.11  0.  0.
   413  4.12  0.  0.
   414  4.13  0.  0.
   415  4.14  0.  0.
   416  4.15  0.  0.
   417  4.16  0.  0.
   418  4.17  0.  0.
   419  4.18  0.  0.
   420  4.19  0.  0.
   421  4.20  0.  0.
   422  4.21  0.  0.
   423  4.22  0.  0.
   424  4.23  0.  0.
   425  4.24  0.  0.
   426  4.25  0.  0.
   427  4.26  0.  0.
   428  4.27  0.  0.
   429  4.28  0.  0.
   430  4.29  0.  0.
   431  4.30  0.  0.
   432  4.31  0.  0.
   433  4.32  0.  0.
   434  4.33  0.  0.
   435  4.34  0.  0.
   436  4.35  0.  0.
   437  4.36  0.  0.
   438  4.37  0.  0.
   439  4.38  0.  0.
   440  4.39  0.  0.
   441  4.40  0.  0.
   442  4.41  0.  0.
   443  4.42  0.  0.
   444  4.43  0.  0.
   445  4.44  0.  0.
   446  4.45  0.  0.
   447  4.46  0.  0.
   448  4.47  0.  0.
   449  4.48  0.  0.
   450  4.49  0.  0.
   451  4.50  0.  0.
   452  4.51  0.  0.
   453  4.52  0.  0.
   454  4.53  0.  0.
   455  4.54  0.  0.
   456  4.55  0.  0.
   457  4.56  0.  0.
   458  4.57  0.  0.
   459  4.58  0.  0.
   460  4.59  0.  0.
   461  4.60  0.  0.
   462  4.61  0.  0.
   463  4.62  0.  0.
   464  4.63  0.  0.
   465  4.64  0.  0.
   466  4.65  0.  0.
   467  4.66  0.  0.
   468  4.67  0.  0.
   469  4.68  0.  0.
   470  4.69  0.  0.
   471  4.70  0.  0.
   472  4.71  0.  0.
   473  4.72  0.  0.
   474  4.73  0.  0.
   475  4.74  0.  0.
   476  4.75  0.  0.
   477  4.76  0.  0.
   478  4.77  0.  0.
   479  4.78  0.  0.
   480  4.79  0.  0.
   481  4.80  0.  0.
   482  4.81  0.  0.
   483  4.82  0.  0.
   484  4.83  0.  0.
   485  4.84  0.  0.
   486  4.85  0.  0.
   487  4.86  0.  0.
   488  4.87  0.  0.
   489  4.88  0.  0.
   490  4.89  0.  0.
   491  4.90  0.  0.
   492  4.91  0.  0.
   493  4.92  0.  0.
   494  4.93  0.  0.
   495  4.94  0.  0.
   496  4.95  0.  0.
   497  4.96  0.  0.
   498  4.97  0.  0.
   499  4.98  0.  0.
   500  4.99  0.  0.
   501  5.00  0.  0.
   502  5.01  0.  0.
   503  5.02  0.  0.
   504  5.03  0.  0.
   505  5.04  0.  0.
   506  5.05  0.  0.
   507  5.06  0.  0.
   508  5.07  0.  0.
   509  5.08  0.  0.
   510  5.09  0.  0.
   511  5.10  0.  0.
   512  5.11  0.  0.
   513  5.12  0.  0.
   514  5.13  0.  0.
   515  5.14  0.  0.
   516  5.15  0.  0.
   517  5.16  0.  0.
   518  5.17  0.  0.
   519  5.18  0.  0.
   520  5.19  0.  0.
   521  5.20  0.  0.
   522  5.21  0.  0.
   523  5.22  0.  0.
   524  5.23  0.  0.
   525  5.24  0.  0.
   526  5.25  0.  0.
   527  5.26  0.  0.
   528  5.27  0.  0.
   529  5.28  0.  0.
   530  5.29  0.  0.
   531  5.30  0.  0.
   532  5.31  0.  0.
   533  5.32  0.  0.
   534  5.33  0.  0.
   535  5.34  0.  0.
   536  5.35  0.  0.
   537  5.36  0.  0.
   538  5.37  0.  0.
   539  5.38  0.  0.
   540  5.39  0.  0.
   541  5.40  0.  0.
   542  5.41  0.  0.
   543  5.42  0.  0.
   544  5.43  0.  0.
   545  5.44  0.  0.
   546  5.45  0.  0.
   547  5.46  0.  0.
   548  5.47  0.  0.
   549  5.48  0.  0.
   550  5.49  0.  0.
   551  5.50  0.  0.
   552  5.51  0.  0.
   553  5.52  0.  0.
   554  5.53  0.  0.
   555  5.54  0.  0.
   556  5.55  0.  0.
   557  5.56  0.  0.
   558  5.57  0.  0.
   559  5.58  0.  0.
   560  5.59  0.  0.
   561  5.60  0.  0.
   562  5.61  0.  0.
   563  5.62  0.  0.
   564  5.63  0.  0.
   565  5.64  0.  0.
   566  5.65  0.  0.
   567  5.66  0.  0.
   568  5.67  0.  0.
   569  5.68  0.  0.
   570  5.69  0.  0.
   571  5.70  0.  0.
   572  5.71  0.  0.
   573  5.72  0.  0.
   574  5.73  0.  0.
   575  5.74  0.  0.
   576  5.75  0.  0.
   577  5.76  0.  0.
   578  5.77  0.  0.
   579  5.78  0.  0.
   580  5.79  0.  0.
   581  5.80  0.  0.
   582  5.81  0.  0.
   583  5.82  0.  0.
   584  5.83  0.  0.
   585  5.84  0.  0.
   586  5.85  0.  0.
   587  5.86  0.  0.
   588  5.87  0.  0.
   589  5.88  0.  0.
   590  5.89  0.  0.
   591  5.90  0.  0.
   592  5.91  0.  0.
   593  5.92  0.  0.
   594  5.93  0.  0.
   595  5.94  0.  0.
   596  5.95  0.  0.
   597  5.96  0.  0.
   598  5.97  0.  0.
   599  5.98  0.  0.
   600  5.99  0.  0.
   1                         1.1808011158918E+00 -2.4987976527551E-01
     1  0.0000000000000E+00  7.2597805544916E-10  1.5918346675525E-10
     2  1.0000000000000E-02  1.0094781761478E-03  7.1384816256062E-05
     3  2.0000000000000E-02  4.0339147311883E-03  2.8551429769918E-04
     4  3.0000000000000E-02  9.0613472231660E-03  6.4231813790182E-04
     5  4.0000000000000E-02  1.6071942765738E-02  1.1416943864228E-03
     6  5.0000000000000E-02  2.5038153371816E-02  1.7835319707009E-03
     7  6.0000000000000E-02  3.5924930593275E-02  2.5677415950694E-03
     8  7.0000000000000E-02  4.8689996665542E-02  3.4942943973808E-03
     9  8.0000000000000E-02  6.3284168639922E-02  4.5632675845483E-03
    10  9.0000000000000E-02  7.9651731312175E-02  5.7748961210685E-03
    11  1.0000000000000E-01  9.7730854143556E-02  7.1296294131677E-03
    12  1.1000000000000E-01  1.1745404682918E-01  8.6281918165990E-03
    13  1.2000000000000E-01  1.3874864770614E-01  1.0271645700932E-02
    14  1.3000000000000E-01  1.6153733881680E-01  1.2061455728794E-02
    15  1.4000000000000E-01  1.8573868115740E-01  1.3999552956239E-02
    16  1.5000000000000E-01  2.1126766345161E-01  1.6088397331228E-02
    17  1.6000000000000E-01  2.3803625769640E-01  1.8331037161773E-02
    18  1.7000000000000E-01  2.6595397473486E-01  2.0731164143597E-02
    19  1.8000000000000E-01  2.9492841321662E-01  2.3293162579559E-02
    20  1.9000000000000E-01  3.2486579550968E-01  2.6022151488270E-02
    21  2.0000000000000E-01  3.5567148442560E-01  2.8924018387450E-02
    22  2.1000000000000E-01  3.8725047500641E-01  3.2005443646369E-02
    23  2.2000000000000E-01  4.1950785609283E-01  3.5273914430320E-02
    24  2.3000000000000E-01  4.5234923693998E-01  3.8737727406409E-02
    25  2.4000000000000E-01  4.8568113476199E-01  4.2405979541641E-02
    26  2.5000000000000E-01  5.1941131976034E-01  4.6288546499355E-02
    27  2.6000000000000E-01  5.5344911491280E-01  5.0396048325372E-02
    28  2.7000000000000E-01  5.8770564855861E-01  5.4739802308426E-02
    29  2.8000000000000E-01  6.2209405860056E-01  5.9331763097194E-02
    30  2.9000000000000E-01  6.5652964794274E-01  6.4184450355952E-02
    31  3.0000000000000E-01  6.9092999158244E-01  6.9310864438909E-02
    32  3.1000000000000E-01  7.2521499656346E-01  7.4724390757095E-02
    33  3.2000000000000E-01  7.5930691676369E-01  8.0438693697821E-02
    34  3.3000000000000E-01  7.9313032522065E-01  8.6467601132615E-02
    35  3.4000000000000E-01  8.2661204738303E-01  9.2824980712030E-02
    36  3.5000000000000E-01  8.5968105930435E-01  9.9524609292452E-02
    37  3.6000000000000E-01  8.9226835535537E-01  1.0658003696853E-01
    38  3.7000000000000E-01  9.2430679051794E-01  1.1400444729296E-01
    39  3.8000000000000E-01  9.5573090272485E-01  1.2181051535125E-01
    40  3.9000000000000E-01  9.8647672102330E-01  1.3001026542121E-01
    41  4.0000000000000E-01  1.0164815655573E+00  1.3861492998431E-01
    42  4.1000000000000E-01  1.0456838454836E+00  1.4763481186752E-01
    43  4.2000000000000E-01  1.0740228609558E+00  1.5707915127982E-01
    44  4.3000000000000E-01  1.1014386152257E+00  1.6695599946699E-01
    45  4.4000000000000E-01  1.1278716427317E+00  1.7727210064175E-01
    46  4.5000000000000E-01  1.1532628587603E+00  1.8803278375512E-01
    47  4.6000000000000E-01  1.1775534358914E+00  1.9924186555969E-01
    48  4.7000000000000E-01  1.2006847119751E+00  2.1090156627764E-01
    49  4.8000000000000E-01  1.2225981338398E+00  2.2301243902888E-01
    50  4.9000000000000E-01  1.2432352403122E+00  2.3557331399788E-01
    51  5.0000000000000E-01  1.2625376874420E+00  2.4858125812597E-01
    52  5.1000000000000E-01  1.2804473180881E+00  2.6203155091051E-01
    53  5.2000000000000E-01  1.2969062772326E+00  2.7591767667720E-01
    54  5.3000000000000E-01  1.3118571735807E+00  2.9023133346928E-01
    55  5.4000000000000E-01  1.3252432871648E+00  3.0496245847130E-01
    56  5.5000000000000E-01  1.3370088218304E+00  3.2009926965867E-01
    57  5.6000000000000E-01  1.3470992006497E+00  3.3562832314049E-01
    58  5.7000000000000E-01  1.3554614014883E+00  3.5153458544592E-01
    59  5.8000000000000E-01  1.3620443291727E+00  3.6780151979641E-01
    60  5.9000000000000E-01  1.3667992199629E+00  3.8441118521128E-01
    61  6.0000000000000E-01  1.3696800733564E+00  4.0134434711457E-01
    62  6.1000000000000E-01  1.3706441056332E+00  4.1858059795039E-01
    63  6.2000000000000E-01  1.3696522190152E+00  4.3609848617419E-01
    64  6.3000000000000E-01  1.3666694798628E+00  4.5387565187070E-01
    65  6.4000000000000E-01  1.3616655989783E+00  4.7188896715824E-01
    66  6.5000000000000E-01  1.3546154068281E+00  4.9011467947415E-01
    67  6.6000000000000E-01  1.3454993163490E+00  5.0852855579976E-01
    68  6.7000000000000E-01  1.3343037659663E+00  5.2710602587501E-01
    69  6.8000000000000E-01  1.3210216355214E+00  5.4582232247392E-01
    70  6.9000000000000E-01  1.3056526279923E+00  5.6465261686200E-01
    71  7.0000000000000E-01  1.2882036101864E+00  5.8357214763493E-01
    72  7.1000000000000E-01  1.2686889059827E+00  6.0255634124349E-01
    73  7.2000000000000E-01  1.2471305362098E+00  6.2158092264154E-01
    74  7.3000000000000E-01  1.2235583998421E+00  6.4062201464988E-01
    75  7.4000000000000E-01  1.1980103918875E+00  6.5965622480707E-01
    76  7.5000000000000E-01  1.1705324541094E+00  6.7866071867610E-01
    77  7.6000000000000E-01  1.1411785555600E+00  6.9761327879064E-01
    78  7.7000000000000E-01  1.1100106007990E+00  7.1649234865300E-01
    79  7.8000000000000E-01  1.0770982646115E+00  7.3527706143489E-01
    80  7.9000000000000E-01  1.0425187530100E+00  7.5394725327820E-01
    81  8.0000000000000E-01  1.0063564912951E+00  7.7248346134183E-01
    82  8.1000000000000E-01  9.6870274094455E-01  7.9086690698991E-01