Zr    ONCVPSP-4.0.1  r_core=   2.21223   2.01031   2.50835
     40.0000     12.0000      230118    zatom,zion,pspd
     8       2   2     4   600     0    pspcod,pspxc,lmax,lloc,mmax,r2well
  5.99000000  5.00000000  0.00000000    rchrg fchrg qchrg
     2     2     2     0     0    nproj
     1     1           extension_switch
   0                         2.6908128523845E+00 -1.2384197088111E-01
     1  0.0000000000000E+00  2.6634805472270E-12  7.8348022514163E-11
     2  1.0000000000000E-02  4.6104711661382E-02  2.7745967459841E-02
     3  2.0000000000000E-02  9.2155334752632E-02  5.5444402453960E-02
     4  3.0000000000000E-02  1.3809785009994E-01  8.3047687879302E-02
     5  4.0000000000000E-02  1.8387837729544E-01  1.1050803932159E-01
     6  5.0000000000000E-02  2.2944324401270E-01  1.3777742628828E-01
     7  6.0000000000000E-02  2.7473905523942E-01  1.6480749925194E-01
     8  7.0000000000000E-02  3.1971276239645E-01  1.9154952434808E-01
     9  8.0000000000000E-02  3.6431173230977E-01  2.1795432749342E-01
    10  9.0000000000000E-02  4.0848381599884E-01  2.4397224959370E-01
    11  1.0000000000000E-01  4.5217741724051E-01  2.6955311439632E-01
    12  1.1000000000000E-01  4.9534156086397E-01  2.9464621041268E-01
    13  1.2000000000000E-01  5.3792596072662E-01  3.1920028818970E-01
    14  1.3000000000000E-01  5.7988108731603E-01  3.4316357405040E-01
    15  1.4000000000000E-01  6.2115823491721E-01  3.6648380125170E-01
    16  1.5000000000000E-01  6.6170958827847E-01  3.8910825932494E-01
    17  1.6000000000000E-01  7.0148828870298E-01  4.1098386217242E-01
    18  1.7000000000000E-01  7.4044849948670E-01  4.3205723529431E-01
    19  1.8000000000000E-01  7.7854547061693E-01  4.5227482231449E-01
    20  1.9000000000000E-01  8.1573560263911E-01  4.7158301076571E-01
    21  2.0000000000000E-01  8.5197650959316E-01  4.8992827688303E-01
    22  2.1000000000000E-01  8.8722708091406E-01  5.0725734894424E-01
    23  2.2000000000000E-01  9.2144754218573E-01  5.2351738848675E-01
    24  2.3000000000000E-01  9.5459951463084E-01  5.3865618852590E-01
    25  2.4000000000000E-01  9.8664607321414E-01  5.5262238770043E-01
    26  2.5000000000000E-01  1.0175518032316E+00  5.6536569907937E-01
    27  2.6000000000000E-01  1.0472828552535E+00  5.7683715218278E-01
    28  2.7000000000000E-01  1.0758069982848E+00  5.8698934659800E-01
    29  2.8000000000000E-01  1.1030936710036E+00  5.9577671541520E-01
    30  2.9000000000000E-01  1.1291140309368E+00  6.0315579656197E-01
    31  3.0000000000000E-01  1.1538410014260E+00  6.0908550998957E-01
    32  3.1000000000000E-01  1.1772493162428E+00  6.1352743855191E-01
    33  3.2000000000000E-01  1.1993155617042E+00  6.1644611032598E-01
    34  3.3000000000000E-01  1.2200182161464E+00  6.1780928004870E-01
    35  3.4000000000000E-01  1.2393376866132E+00  6.1758820729161E-01
    36  3.5000000000000E-01  1.2572563426171E+00  6.1575792896154E-01
    37  3.6000000000000E-01  1.2737585468389E+00  6.1229752370354E-01
    38  3.7000000000000E-01  1.2888306826298E+00  6.0719036579130E-01
    39  3.8000000000000E-01  1.3024611781920E+00  6.0042436612121E-01
    40  3.9000000000000E-01  1.3146405273137E+00  5.9199219797819E-01
    41  4.0000000000000E-01  1.3253613065476E+00  5.8189150531410E-01
    42  4.1000000000000E-01  1.3346181887248E+00  5.7012509137355E-01
    43  4.2000000000000E-01  1.3424079527094E+00  5.5670108561540E-01
    44  4.3000000000000E-01  1.3487294893056E+00  5.4163308701059E-01
    45  4.4000000000000E-01  1.3535838032422E+00  5.2494028194836E-01
    46  4.5000000000000E-01  1.3569740111692E+00  5.0664753515028E-01
    47  4.6000000000000E-01  1.3589053356133E+00  4.8678545217486E-01
    48  4.7000000000000E-01  1.3593850948535E+00  4.6539041229404E-01
    49  4.8000000000000E-01  1.3584226886882E+00  4.4250457073219E-01
    50  4.9000000000000E-01  1.3560295800821E+00  4.1817582948026E-01
    51  5.0000000000000E-01  1.3522192726925E+00  3.9245777612791E-01
    52  5.1000000000000E-01  1.3470072842905E+00  3.6540959039421E-01
    53  5.2000000000000E-01  1.3404111161065E+00  3.3709591828047E-01
    54  5.3000000000000E-01  1.3324502181445E+00  3.0758671401519E-01
    55  5.4000000000000E-01  1.3231459505240E+00  2.7695705020789E-01
    56  5.5000000000000E-01  1.3125215409221E+00  2.4528689687633E-01
    57  5.6000000000000E-01  1.3006020382056E+00  2.1266087025396E-01
    58  5.7000000000000E-01  1.2874142623531E+00  1.7916795252376E-01
    59  5.8000000000000E-01  1.2729867507847E+00  1.4490118385575E-01
    60  5.9000000000000E-01  1.2573497012274E+00  1.0995732834789E-01
    61  6.0000000000000E-01  1.2405349112597E+00  7.4436515681108E-02
    62  6.1000000000000E-01  1.2225757146884E+00  3.8441860498372E-02
    63  6.2000000000000E-01  1.2035069149255E+00  2.0790617003630E-03
    64  6.3000000000000E-01  1.1833647155408E+00 -3.4544015980829E-02
    65  6.4000000000000E-01  1.1621866481782E+00 -7.1317775619718E-02
    66  6.5000000000000E-01  1.1400114980309E+00 -1.0813133430535E-01
    67  6.6000000000000E-01  1.1168792270806E+00 -1.4487297916760E-01
    68  6.7000000000000E-01  1.0928308953131E+00 -1.8143063038062E-01
    69  6.8000000000000E-01  1.0679085801253E+00 -2.1769230823547E-01
    70  6.9000000000000E-01  1.0421552941502E+00 -2.5354660132985E-01
    71  7.0000000000000E-01  1.0156149017232E+00 -2.8888313290208E-01
    72  7.1000000000000E-01  9.8833203422279E-01 -3.2359302233927E-01
    73  7.2000000000000E-01  9.6035200451370E-01 -3.5756933891638E-01
    74  7.3000000000000E-01  9.3172072072812E-01 -3.9070754487231E-01
    75  7.4000000000000E-01  9.0248459961413E-01 -4.2290592500358E-01
    76  7.5000000000000E-01  8.7269047968274E-01 -4.5406600005109E-01
    77  7.6000000000000E-01  8.4238553438047E-01 -4.8409292127462E-01
    78  7.7000000000000E-01  8.1161718551146E-01 -5.1289584374786E-01
    79  7.8000000000000E-01  7.8043301712796E-01 -5.4038827606681E-01
    80  7.9000000000000E-01  7.4888069010235E-01 -5.6648840434210E-01
    81  8.0000000000000E-01  7.1700785758768E-01 -5.9111938854029E-01
    82  8.1000000000000E-01  6.8486208156548E-01 -6.1420962945156E-01
    83  8.2000000000000E-01  6.5249075067213E-01 -6.3569300478459E-01
    84  8.3000000000000E-01  6.1994099948546E-01 -6.5550907312744E-01
    85  8.4000000000000E-01  5.8725962944393E-01 -6.7360324476010E-01
    86  8.5000000000000E-01  5.5449303156057E-01 -6.8992691855948E-01
    87  8.6000000000000E-01  5.2168711108293E-01 -7.0443758449901E-01
    88  8.7000000000000E-01  4.8888721423949E-01 -7.1709889150990E-01
    89  8.8000000000000E-01  4.5613805720142E-01 -7.2788068073754E-01
    90  8.9000000000000E-01  4.2348365737697E-01 -7.3675898449188E-01
    91  9.0000000000000E-01  3.9096726714427E-01 -7.4371599145369E-01
    92  9.1000000000000E-01  3.5863131011599E-01 -7.4873997895602E-01
    93  9.2000000000000E-01  3.2651732001834E-01 -7.5182521340919E-01
    94  9.3000000000000E-01  2.9466588225447E-01 -7.5297182017905E-01
    95  9.4000000000000E-01  2.6311657821158E-01 -7.5218562445605E-01
    96  9.5000000000000E-01  2.3190793235954E-01 -7.4947796486746E-01
    97  9.6000000000000E-01  2.0107736217818E-01 -7.4486548178478E-01
    98  9.7000000000000E-01  1.7066113094022E-01 -7.3836988246039E-01
    99  9.8000000000000E-01  1.4069430336681E-01 -7.3001768528970E-01
   100  9.9000000000000E-01  1.1121070416350E-01 -7.1983994563934E-01
   101  1.0000000000000E+00  8.2242879435895E-02 -7.0787196580176E-01
   102  1.0100000000000E+00  5.3822060975975E-02 -6.9415299173595E-01
   103  1.0200000000000E+00  2.5978133403257E-02 -6.7872589932894E-01
   104  1.0300000000000E+00 -1.2603958620902E-03 -6.6163687296306E-01
   105  1.0400000000000E+00 -2.7866423822524E-02 -6.4293507920084E-01
   106  1.0500000000000E+00 -5.3814276356350E-02 -6.2267233839997E-01
   107  1.0600000000000E+00 -7.9079729938681E-02 -6.0090279704730E-01
   108  1.0700000000000E+00 -1.0364003067140E-01 -5.7768260355254E-01
   109  1.0800000000000E+00 -1.2747391066621E-01 -5.5306959016884E-01
   110  1.0900000000000E+00 -1.5056160182680E-01 -5.2712296361159E-01
   111  1.1000000000000E+00 -1.7288484707742E-01 -4.9990300682655E-01
   112  1.1100000000000E+00 -1.9442690908597E-01 -4.7147079421807E-01
   113  1.1200000000000E+00 -2.1517257652931E-01 -4.4188792248467E-01
   114  1.1300000000000E+00 -2.3510816794820E-01 -4.1121625903016E-01
   115  1.1400000000000E+00 -2.5422153323802E-01 -3.7951770971791E-01
   116  1.1500000000000E+00 -2.7250205281962E-01 -3.4685400752286E-01
   117  1.1600000000000E+00 -2.8994063453275E-01 -3.1328652340663E-01
   118  1.1700000000000E+00 -3.0652970829202E-01 -2.7887610050147E-01
   119  1.1800000000000E+00 -3.2226321854263E-01 -2.4368291243896E-01
   120  1.1900000000000E+00 -3.3713661455025E-01 -2.0776634640187E-01
   121  1.2000000000000E+00 -3.5114683855623E-01 -1.7118491121590E-01
   122  1.2100000000000E+00 -3.6429231182656E-01 -1.3399617053265E-01
   123  1.2200000000000E+00 -3.7657291861952E-01 -9.6256700890542E-02
   124  1.2300000000000E+00 -3.8798998809437E-01 -5.8022074176999E-02
   125  1.2400000000000E+00 -3.9854627418045E-01 -1.9346863757747E-02
   126  1.2500000000000E+00 -4.0824593342367E-01  1.9715326713187E-02
   127  1.2600000000000E+00 -4.1709450082509E-01  5.9111813029917E-02
   128  1.2700000000000E+00 -4.2509886368465E-01  9.8790760175357E-02
   129  1.2800000000000E+00 -4.3226723346175E-01  1.3870109374058E-01
   130  1.2900000000000E+00 -4.3860911566350E-01  1.7879239489643E-01
   131  1.3000000000000E+00 -4.4413527777147E-01  2.1901478097486E-01
   132  1.3100000000000E+00 -4.4885771521806E-01  2.5931877387949E-01
   133  1.3200000000000E+00 -4.5278961542472E-01  2.9965515868657E-01
   134  1.3300000000000E+00 -4.5594531991611E-01  3.3997483491651E-01
   135  1.3400000000000E+00 -4.5834028452663E-01  3.8022866305129E-01
   136  1.3500000000000E+00 -4.5999103771943E-01  4.2036730894304E-01
   137  1.3600000000000E+00 -4.6091513704139E-01  4.6034108880264E-01
   138  1.3700000000000E+00 -4.6113112374292E-01  5.0009981747685E-01
   139  1.3800000000000E+00 -4.6065847559648E-01  5.3959266271166E-01
   140  1.3900000000000E+00 -4.5951755795413E-01  5.7876800806591E-01
   141  1.4000000000000E+00 -4.5772957309132E-01  6.1757332707593E-01
   142  1.4100000000000E+00 -4.5531650789144E-01  6.5595507118446E-01
   143  1.4200000000000E+00 -4.5230107993400E-01  6.9385857383249E-01
   144  1.4300000000000E+00 -4.4870668205792E-01  7.3122797297473E-01
   145  1.4400000000000E+00 -4.4455732548042E-01  7.6800615411608E-01
   146  1.4500000000000E+00 -4.3987758156173E-01  8.0413471578323E-01
   147  1.4600000000000E+00 -4.3469252231566E-01  8.3955395913875E-01
   148  1.4700000000000E+00 -4.2902765977601E-01  8.7420290322119E-01
   149  1.4800000000000E+00 -4.2290888433949E-01  9.0801932705289E-01
   150  1.4900000000000E+00 -4.1636240221562E-01  9.4093983960015E-01
   151  1.5000000000000E+00 -4.0941467212485E-01  9.7289997830149E-01
   152  1.5100000000000E+00 -4.0209234139589E-01  1.0038343365984E+00
   153  1.5200000000000E+00 -3.9442218162346E-01  1.0336767206165E+00
   154  1.5300000000000E+00 -3.8643102405688E-01  1.0623603348492E+00
   155  1.5400000000000E+00 -3.7814569489916E-01  1.0898179964035E+00
   156  1.5500000000000E+00 -3.6959295070477E-01  1.1159823770655E+00
   157  1.5600000000000E+00 -3.6079941407186E-01  1.1407862721546E+00
   158  1.5700000000000E+00 -3.5179150983188E-01  1.1641628948451E+00
   159  1.5800000000000E+00 -3.4259540194560E-01  1.1860461943518E+00
   160  1.5900000000000E+00 -3.3323693131978E-01  1.2063711961086E+00
   161  1.6000000000000E+00 -3.2374155476259E-01  1.2250743618116E+00
   162  1.6100000000000E+00 -3.1413428529904E-01  1.2420939669576E+00
   163  1.6200000000000E+00 -3.0443963406925E-01  1.2573704932855E+00
   164  1.6300000000000E+00 -2.9468155403276E-01  1.2708470333249E+00
   165  1.6400000000000E+00 -2.8488338570135E-01  1.2824697040777E+00
   166  1.6500000000000E+00 -2.7506780512001E-01  1.2921880667011E+00
   167  1.6600000000000E+00 -2.6525677431250E-01  1.2999555489277E+00
   168  1.6700000000000E+00 -2.5547149440224E-01  1.3057298668604E+00
   169  1.6800000000000E+00 -2.4573236161253E-01  1.3094734426997E+00
   170  1.6900000000000E+00 -2.3605892634230E-01  1.3111538149180E+00
   171  1.7000000000000E+00 -2.2646985550319E-01  1.3107440373816E+00
   172  1.7100000000000E+00 -2.1698289829324E-01  1.3082230639343E+00
   173  1.7200000000000E+00 -2.0761485556940E-01  1.3035761150042E+00
   174  1.7300000000000E+00 -1.9838155296725E-01  1.2967950228717E+00
   175  1.7400000000000E+00 -1.8929781790121E-01  1.2878785523463E+00
   176  1.7500000000000E+00 -1.8037746056141E-01  1.2768326937348E+00
   177  1.7600000000000E+00 -1.7163325900634E-01  1.2636709251511E+00
   178  1.7700000000000E+00 -1.6307694843090E-01  1.2484144414144E+00
   179  1.7800000000000E+00 -1.5471921467025E-01  1.2310923469990E+00
   180  1.7900000000000E+00 -1.4656969197860E-01  1.2117418107498E+00
   181  1.8000000000000E+00 -1.3863696510127E-01  1.1904081803427E+00
   182  1.8100000000000E+00 -1.3092857563565E-01  1.1671450547618E+00
   183  1.8200000000000E+00 -1.2345103265469E-01  1.1420143133713E+00
   184  1.8300000000000E+00 -1.1620982754342E-01  1.1150861004883E+00
   185  1.8400000000000E+00 -1.0920945297592E-01  1.0864387646982E+00
   186  1.8500000000000E+00 -1.0245342593712E-01  1.0561587525059E+00
   187  1.8600000000000E+00 -9.5944314670931E-02  1.0243404562745E+00
   188  1.8700000000000E+00 -8.9683769413241E-02  9.9108601676316E-01
   189  1.8800000000000E+00 -8.3672556746210E-02  9.5650508094793E-01
   190  1.8900000000000E+00 -7.7910597388770E-02  9.2071451616220E-01
   191  1.9000000000000E+00 -7.2397007216919E-02  8.8383808196756E-01
   192  1.9100000000000E+00 -6.7130141287681E-02  8.4600606151036E-01
   193  1.9200000000000E+00 -6.2107640621517E-02  8.0735485446653E-01
   194  1.9300000000000E+00 -5.7326481480215E-02  7.6802653400782E-01
   195  1.9400000000000E+00 -5.2783026860810E-02  7.2816837053810E-01
   196  1.9500000000000E+00 -4.8473079911143E-02  6.8793232524461E-01
   197  1.9600000000000E+00 -4.4391938959121E-02  6.4747451678816E-01
   198  1.9700000000000E+00 -4.0534453836296E-02  6.0695466470215E-01
   199  1.9800000000000E+00 -3.6895083154885E-02  5.6653551433169E-01
   200  1.9900000000000E+00 -3.3467952212546E-02  5.2638224537241E-01
   201  2.0000000000000E+00 -3.0246911537084E-02  4.8666184143233E-01
   202  2.0100000000000E+00 -2.7225593874877E-02  4.4754257752105E-01
   203  2.0200000000000E+00 -2.4397475525760E-02  4.0919308247499E-01
   204  2.0300000000000E+00 -2.1755960006300E-02  3.7177942435579E-01
   205  2.0400000000000E+00 -1.9294470064611E-02  3.3546213077961E-01
   206  2.0500000000000E+00 -1.7006522346778E-02  3.0039504164978E-01
   207  2.0600000000000E+00 -1.4885793932517E-02  2.6672479176431E-01
   208  2.0700000000000E+00 -1.2926188127510E-02  2.3459012789797E-01
   209  2.0800000000000E+00 -1.1121897920419E-02  2.0412126875425E-01
   210  2.0900000000000E+00 -9.4674562088450E-03  1.7543950819744E-01
   211  2.1000000000000E+00 -7.9578142714185E-03  1.4865624224296E-01
   212  2.1100000000000E+00 -6.5885880350757E-03  1.2386714365137E-01
   213  2.1200000000000E+00 -5.3559687576167E-03  1.0115471198561E-01
   214  2.1300000000000E+00 -4.2561683198295E-03  8.0603217590261E-02
   215  2.1400000000000E+00 -3.2860130011675E-03  6.2285440411197E-02
   216  2.1500000000000E+00 -2.4430073575549E-03  4.6261500106534E-02
   217  2.1600000000000E+00 -1.7253348596616E-03  3.2579073608106E-02
   218  2.1700000000000E+00 -1.1318817815688E-03  2.1273084221788E-02
   219  2.1800000000000E+00 -6.6251548219526E-04  1.2370215940013E-02
   220  2.1900000000000E+00 -3.1558102907755E-04  5.8440082976868E-03
   221  2.2000000000000E+00 -9.7328458641831E-05  1.7838318199792E-03
   222  2.2100000000000E+00 -7.2151358657480E-06  1.3053167282032E-04
   223  2.2200000000000E+00  4.6785696285475E-06 -8.4353939128567E-05
   224  2.2300000000000E+00 -1.5801788551501E-06  2.8731870989419E-05
   225  2.24  0. -0.
   226  2.25  0. -0.
   227  2.26 -0.  0.
   228  2.27  0.  0.
   229  2.28  0.  0.
   230  2.29  0.  0.
   231  2.30  0.  0.
   232  2.31  0.  0.
   233  2.32  0.  0.
   234  2.33  0.  0.
   235  2.34  0.  0.
   236  2.35  0.  0.
   237  2.36  0.  0.
   238  2.37  0.  0.
   239  2.38  0.  0.
   240  2.39  0.  0.
   241  2.40  0.  0.
   242  2.41  0.  0.
   243  2.42  0.  0.
   244  2.43  0.  0.
   245  2.44  0.  0.
   246  2.45  0.  0.
   247  2.46  0.  0.
   248  2.47  0.  0.
   249  2.48  0.  0.
   250  2.49  0.  0.
   251  2.50  0.  0.
   252  2.51  0.  0.
   253  2.52  0.  0.
   254  2.53  0.  0.
   255  2.54  0.  0.
   256  2.55  0.  0.
   257  2.56  0.  0.
   258  2.57  0.  0.
   259  2.58  0.  0.
   260  2.59  0.  0.
   261  2.60  0.  0.
   262  2.61  0.  0.
   263  2.62  0.  0.
   264  2.63  0.  0.
   265  2.64  0.  0.
   266  2.65  0.  0.
   267  2.66  0.  0.
   268  2.67  0.  0.
   269  2.68  0.  0.
   270  2.69  0.  0.
   271  2.70  0.  0.
   272  2.71  0.  0.
   273  2.72  0.  0.
   274  2.73  0.  0.
   275  2.74  0.  0.
   276  2.75  0.  0.
   277  2.76  0.  0.
   278  2.77  0.  0.
   279  2.78  0.  0.
   280  2.79  0.  0.
   281  2.80  0.  0.
   282  2.81  0.  0.
   283  2.82  0.  0.
   284  2.83  0.  0.
   285  2.84  0.  0.
   286  2.85  0.  0.
   287  2.86  0.  0.
   288  2.87  0.  0.
   289  2.88  0.  0.
   290  2.89  0.  0.
   291  2.90  0.  0.
   292  2.91  0.  0.
   293  2.92  0.  0.
   294  2.93  0.  0.
   295  2.94  0.  0.
   296  2.95  0.  0.
   297  2.96  0.  0.
   298  2.97  0.  0.
   299  2.98  0.  0.
   300  2.99  0.  0.
   301  3.00  0.  0.
   302  3.01  0.  0.
   303  3.02  0.  0.
   304  3.03  0.  0.
   305  3.04  0.  0.
   306  3.05  0.  0.
   307  3.06  0.  0.
   308  3.07  0.  0.
   309  3.08  0.  0.
   310  3.09  0.  0.
   311  3.10  0.  0.
   312  3.11  0.  0.
   313  3.12  0.  0.
   314  3.13  0.  0.
   315  3.14  0.  0.
   316  3.15  0.  0.
   317  3.16  0.  0.
   318  3.17  0.  0.
   319  3.18  0.  0.
   320  3.19  0.  0.
   321  3.20  0.  0.
   322  3.21  0.  0.
   323  3.22  0.  0.
   324  3.23  0.  0.
   325  3.24  0.  0.
   326  3.25  0.  0.
   327  3.26  0.  0.
   328  3.27  0.  0.
   329  3.28  0.  0.
   330  3.29  0.  0.
   331  3.30  0.  0.
   332  3.31  0.  0.
   333  3.32  0.  0.
   334  3.33  0.  0.
   335  3.34  0.  0.
   336  3.35  0.  0.
   337  3.36  0.  0.
   338  3.37  0.  0.
   339  3.38  0.  0.
   340  3.39  0.  0.
   341  3.40  0.  0.
   342  3.41  0.  0.
   343  3.42  0.  0.
   344  3.43  0.  0.
   345  3.44  0.  0.
   346  3.45  0.  0.
   347  3.46  0.  0.
   348  3.47  0.  0.
   349  3.48  0.  0.
   350  3.49  0.  0.
   351  3.50  0.  0.
   352  3.51  0.  0.
   353  3.52  0.  0.
   354  3.53  0.  0.
   355  3.54  0.  0.
   356  3.55  0.  0.
   357  3.56  0.  0.
   358  3.57  0.  0.
   359  3.58  0.  0.
   360  3.59  0.  0.
   361  3.60  0.  0.
   362  3.61  0.  0.
   363  3.62  0.  0.
   364  3.63  0.  0.
   365  3.64  0.  0.
   366  3.65  0.  0.
   367  3.66  0.  0.
   368  3.67  0.  0.
   369  3.68  0.  0.
   370  3.69  0.  0.
   371  3.70  0.  0.
   372  3.71  0.  0.
   373  3.72  0.  0.
   374  3.73  0.  0.
   375  3.74  0.  0.
   376  3.75  0.  0.
   377  3.76  0.  0.
   378  3.77  0.  0.
   379  3.78  0.  0.
   380  3.79  0.  0.
   381  3.80  0.  0.
   382  3.81  0.  0.
   383  3.82  0.  0.
   384  3.83  0.  0.
   385  3.84  0.  0.
   386  3.85  0.  0.
   387  3.86  0.  0.
   388  3.87  0.  0.
   389  3.88  0.  0.
   390  3.89  0.  0.
   391  3.90  0.  0.
   392  3.91  0.  0.
   393  3.92  0.  0.
   394  3.93  0.  0.
   395  3.94  0.  0.
   396  3.95  0.  0.
   397  3.96  0.  0.
   398  3.97  0.  0.
   399  3.98  0.  0.
   400  3.99  0.  0.
   401  4.00  0.  0.
   402  4.01  0.  0.
   403  4.02  0.  0.
   404  4.03  0.  0.
   405  4.04  0.  0.
   406  4.05  0.  0.
   407  4.06  0.  0.
   408  4.07  0.  0.
   409  4.08  0.  0.
   410  4.09  0.  0.
   411  4.10  0.  0.
   412  4.11  0.  0.
   413  4.12  0.  0.
   414  4.13  0.  0.
   415  4.14  0.  0.
   416  4.15  0.  0.
   417  4.16  0.  0.
   418  4.17  0.  0.
   419  4.18  0.  0.
   420  4.19  0.  0.
   421  4.20  0.  0.
   422  4.21  0.  0.
   423  4.22  0.  0.
   424  4.23  0.  0.
   425  4.24  0.  0.
   426  4.25  0.  0.
   427  4.26  0.  0.
   428  4.27  0.  0.
   429  4.28  0.  0.
   430  4.29  0.  0.
   431  4.30  0.  0.
   432  4.31  0.  0.
   433  4.32  0.  0.
   434  4.33  0.  0.
   435  4.34  0.  0.
   436  4.35  0.  0.
   437  4.36  0.  0.
   438  4.37  0.  0.
   439  4.38  0.  0.
   440  4.39  0.  0.
   441  4.40  0.  0.
   442  4.41  0.  0.
   443  4.42  0.  0.
   444  4.43  0.  0.
   445  4.44  0.  0.
   446  4.45  0.  0.
   447  4.46  0.  0.
   448  4.47  0.  0.
   449  4.48  0.  0.
   450  4.49  0.  0.
   451  4.50  0.  0.
   452  4.51  0.  0.
   453  4.52  0.  0.
   454  4.53  0.  0.
   455  4.54  0.  0.
   456  4.55  0.  0.
   457  4.56  0.  0.
   458  4.57  0.  0.
   459  4.58  0.  0.
   460  4.59  0.  0.
   461  4.60  0.  0.
   462  4.61  0.  0.
   463  4.62  0.  0.
   464  4.63  0.  0.
   465  4.64  0.  0.
   466  4.65  0.  0.
   467  4.66  0.  0.
   468  4.67  0.  0.
   469  4.68  0.  0.
   470  4.69  0.  0.
   471  4.70  0.  0.
   472  4.71  0.  0.
   473  4.72  0.  0.
   474  4.73  0.  0.
   475  4.74  0.  0.
   476  4.75  0.  0.
   477  4.76  0.  0.
   478  4.77  0.  0.
   479  4.78  0.  0.
   480  4.79  0.  0.
   481  4.80  0.  0.
   482  4.81  0.  0.
   483  4.82  0.  0.
   484  4.83  0.  0.
   485  4.84  0.  0.
   486  4.85  0.  0.
   487  4.86  0.  0.
   488  4.87  0.  0.
   489  4.88  0.  0.
   490  4.89  0.  0.
   491  4.90  0.  0.
   492  4.91  0.  0.
   493  4.92  0.  0.
   494  4.93  0.  0.
   495  4.94  0.  0.
   496  4.95  0.  0.
   497  4.96  0.  0.
   498  4.97  0.  0.
   499  4.98  0.  0.
   500  4.99  0.  0.
   501  5.00  0.  0.
   502  5.01  0.  0.
   503  5.02  0.  0.
   504  5.03  0.  0.
   505  5.04  0.  0.
   506  5.05  0.  0.
   507  5.06  0.  0.
   508  5.07  0.  0.
   509  5.08  0.  0.
   510  5.09  0.  0.
   511  5.10  0.  0.
   512  5.11  0.  0.
   513  5.12  0.  0.
   514  5.13  0.  0.
   515  5.14  0.  0.
   516  5.15  0.  0.
   517  5.16  0.  0.
   518  5.17  0.  0.
   519  5.18  0.  0.
   520  5.19  0.  0.
   521  5.20  0.  0.
   522  5.21  0.  0.
   523  5.22  0.  0.
   524  5.23  0.  0.
   525  5.24  0.  0.
   526  5.25  0.  0.
   527  5.26  0.  0.
   528  5.27  0.  0.
   529  5.28  0.  0.
   530  5.29  0.  0.
   531  5.30  0.  0.
   532  5.31  0.  0.
   533  5.32  0.  0.
   534  5.33  0.  0.
   535  5.34  0.  0.
   536  5.35  0.  0.
   537  5.36  0.  0.
   538  5.37  0.  0.
   539  5.38  0.  0.
   540  5.39  0.  0.
   541  5.40  0.  0.
   542  5.41  0.  0.
   543  5.42  0.  0.
   544  5.43  0.  0.
   545  5.44  0.  0.
   546  5.45  0.  0.
   547  5.46  0.  0.
   548  5.47  0.  0.
   549  5.48  0.  0.
   550  5.49  0.  0.
   551  5.50  0.  0.
   552  5.51  0.  0.
   553  5.52  0.  0.
   554  5.53  0.  0.
   555  5.54  0.  0.
   556  5.55  0.  0.
   557  5.56  0.  0.
   558  5.57  0.  0.
   559  5.58  0.  0.
   560  5.59  0.  0.
   561  5.60  0.  0.
   562  5.61  0.  0.
   563  5.62  0.  0.
   564  5.63  0.  0.
   565  5.64  0.  0.
   566  5.65  0.  0.
   567  5.66  0.  0.
   568  5.67  0.  0.
   569  5.68  0.  0.
   570  5.69  0.  0.
   571  5.70  0.  0.
   572  5.71  0.  0.
   573  5.72  0.  0.
   574  5.73  0.  0.
   575  5.74  0.  0.
   576  5.75  0.  0.
   577  5.76  0.  0.
   578  5.77  0.  0.
   579  5.78  0.  0.
   580  5.79  0.  0.
   581  5.80  0.  0.
   582  5.81  0.  0.
   583  5.82  0.  0.
   584  5.83  0.  0.
   585  5.84  0.  0.
   586  5.85  0.  0.
   587  5.86  0.  0.
   588  5.87  0.  0.
   589  5.88  0.  0.
   590  5.89  0.  0.
   591  5.90  0.  0.
   592  5.91  0.  0.
   593  5.92  0.  0.
   594  5.93  0.  0.
   595  5.94  0.  0.
   596  5.95  0.  0.
   597  5.96  0.  0.
   598  5.97  0.  0.
   599  5.98  0.  0.
   600  5.99  0.  0.
   1                         1.2281467338950E+00 -2.9113540621031E-01
     1  0.0000000000000E+00  1.4382531970947E-09  2.5473345828531E-10
     2  1.0000000000000E-02  1.1217808456972E-03  8.6241399667604E-05
     3  2.0000000000000E-02  4.4817368591397E-03  3.4490733780063E-04
     4  3.0000000000000E-02  1.0063762609354E-02  7.7582975767945E-04
     5  4.0000000000000E-02  1.7841195352115E-02  1.3787508357981E-03
     6  5.0000000000000E-02  2.7777081614286E-02  2.1533558710496E-03
     7  6.0000000000000E-02  3.9824544707143E-02  3.0993183045733E-03
     8  7.0000000000000E-02  5.3927247577297E-02  4.2163558676082E-03
     9  8.0000000000000E-02  7.0019943965548E-02  5.5042965999622E-03
    10  9.0000000000000E-02  8.8029109522497E-02  6.9631532496661E-03
    11  1.0000000000000E-01  1.0787364334542E-01  8.5932043598068E-03
    12  1.1000000000000E-01  1.2946562937458E-01  1.0395080174884E-02
    13  1.2000000000000E-01  1.5271114623498E-01  1.2369851359700E-02
    14  1.3000000000000E-01  1.7751111344604E-01  1.4519118421658E-02
    15  1.4000000000000E-01  2.0376216145731E-01  1.6845099663848E-02
    16  1.5000000000000E-01  2.3135751271162E-01  1.9350715473867E-02
    17  1.6000000000000E-01  2.6018786089121E-01  2.2039666771312E-02
    18  1.7000000000000E-01  2.9014223566880E-01  2.4916505496470E-02
    19  1.8000000000000E-01  3.2110884066121E-01  2.7986695122199E-02
    20  1.9000000000000E-01  3.5297585286207E-01  3.1256659309611E-02
    21  2.0000000000000E-01  3.8563217260198E-01  3.4733817003136E-02
    22  2.1000000000000E-01  4.1896811403718E-01  3.8426602469612E-02
    23  2.2000000000000E-01  4.5287602728490E-01  4.2344469025458E-02
    24  2.3000000000000E-01  4.8725084458674E-01  4.6497875461741E-02
    25  2.4000000000000E-01  5.2199054426908E-01  5.0898254465074E-02
    26  2.5000000000000E-01  5.5699652775936E-01  5.5557962637316E-02
    27  2.6000000000000E-01  5.9217390648259E-01  6.0490212034086E-02
    28  2.7000000000000E-01  6.2743169707933E-01  6.5708983465968E-02
    29  2.8000000000000E-01  6.6268292502529E-01  7.1228922130848E-02
    30  2.9000000000000E-01  6.9784463836778E-01  7.7065216466009E-02
    31  3.0000000000000E-01  7.3283783489674E-01  8.3233461418231E-02
    32  3.1000000000000E-01  7.6758730761110E-01  8.9749507624544E-02
    33  3.2000000000000E-01  8.0202141479881E-01  9.6629298269106E-02
    34  3.3000000000000E-01  8.3607178239542E-01  1.0388869562924E-01
    35  3.4000000000000E-01  8.6967294749924E-01  1.1154329954031E-01
    36  3.5000000000000E-01  9.0276195297911E-01  1.1960826019170E-01
    37  3.6000000000000E-01  9.3527790399548E-01  1.2809808781045E-01
    38  3.7000000000000E-01  9.6716149795147E-01  1.3702646189295E-01
    39  3.8000000000000E-01  9.9835453988466E-01  1.4640604270534E-01
    40  3.9000000000000E-01  1.0287994555934E+00  1.5624828778995E-01
    41  4.0000000000000E-01  1.0584388148585E+00  1.6656327618495E-01
    42  4.1000000000000E-01  1.0872148769686E+00  1.7735954299085E-01
    43  4.2000000000000E-01  1.1150691703875E+00  1.8864392679756E-01
    44  4.3000000000000E-01  1.1419421178213E+00  2.0042143232416E-01
    45  4.4000000000000E-01  1.1677727171553E+00  2.1269511042034E-01
    46  4.5000000000000E-01  1.1924982877557E+00  2.2546595733807E-01
    47  4.6000000000000E-01  1.2160542904757E+00  2.3873283490690E-01
    48  4.7000000000000E-01  1.2383742283976E+00  2.5249241294195E-01
    49  4.8000000000000E-01  1.2593896338900E+00  2.6673913488326E-01
    50  4.9000000000000E-01  1.2790301460046E+00  2.8146520731568E-01
    51  5.0000000000000E-01  1.2972236805833E+00  2.9666061365422E-01
    52  5.1000000000000E-01  1.3138966937411E+00  3.1231315190730E-01
    53  5.2000000000000E-01  1.3289745376498E+00  3.2840849605551E-01
    54  5.3000000000000E-01  1.3423819058031E+00  3.4493028021292E-01
    55  5.4000000000000E-01  1.3540433632297E+00  3.6186020437703E-01
    56  5.5000000000000E-01  1.3638839554579E+00  3.7917816022949E-01
    57  5.6000000000000E-01  1.3718298884623E+00  3.9686237512711E-01
    58  5.7000000000000E-01  1.3778092703570E+00  4.1488957212861E-01
    59  5.8000000000000E-01  1.3817529042726E+00  4.3323514364056E-01
    60  5.9000000000000E-01  1.3835951206894E+00  4.5187333604240E-01
    61  6.0000000000000E-01  1.3832746365144E+00  4.7077744246790E-01
    62  6.1000000000000E-01  1.3807354274059E+00  4.8992000078307E-01
    63  6.2000000000000E-01  1.3759275992812E+00  5.0927299371175E-01
    64  6.3000000000000E-01  1.3688082446026E+00  5.2880804802000E-01
    65  6.4000000000000E-01  1.3593422689312E+00  5.4849662968238E-01
    66  6.5000000000000E-01  1.3475031733703E+00  5.6831023201593E-01
    67  6.6000000000000E-01  1.3332737788976E+00  5.8822055388128E-01
    68  6.7000000000000E-01  1.3166468791938E+00  6.0819966521353E-01
    69  6.8000000000000E-01  1.2976258094164E+00  6.2822015735591E-01
    70  6.9000000000000E-01  1.2762249194247E+00  6.4825527592394E-01
    71  7.0000000000000E-01  1.2524699412263E+00  6.6827903422289E-01
    72  7.1000000000000E-01  1.2263982418569E+00  6.8826630557260E-01
    73  7.2000000000000E-01  1.1980589545207E+00  7.0819289325590E-01
    74  7.3000000000000E-01  1.1675129825632E+00  7.2803557719400E-01
    75  7.4000000000000E-01  1.1348328727118E+00  7.4777213685886E-01
    76  7.5000000000000E-01  1.1001025559632E+00  7.6738135035120E-01
    77  7.6000000000000E-01  1.0634169564967E+00  7.8684296999771E-01
    78  7.7000000000000E-01  1.0248814710072E+00  8.0613767524390E-01
    79  7.8000000000000E-01  9.8461132286483E-01  8.2524700403412E-01
    80  7.9000000000000E-01  9.4273079746926E-01  8.4415326426975E-01
    81  8.0000000000000E-01  8.9937236705814E-01  8.6283942731346E-01
    82  8.1000000000000E-01  8.5467571501154E-01  8.8128900585615E-01
    83  8.2000000000000E-01  8.0878667134140E-01  8.9948591877630E-01
    84  8.3000000000000E-01  7.6185607253819E-01  9.1741434589423E-01
    85  8.4000000000000E-01  7.1403856024117E-01  9.3505857575074E-01