Nb    ONCVPSP-4.0.1  r_core=   1.69898   1.72974   1.55317
     41.0000     13.0000      230118    zatom,zion,pspd
     8       2   2     4   600     0    pspcod,pspxc,lmax,lloc,mmax,r2well
  5.99000000  5.00000000  0.00000000    rchrg fchrg qchrg
     2     2     2     0     0    nproj
     1     1           extension_switch
   0                         9.8654609087745E+00  1.1093561247292E+00
     1  0.0000000000000E+00 -3.0888624991121E-11  1.3921708230669E-10
     2  1.0000000000000E-02  5.7878888911683E-02 -2.6935257261045E-02
     3  2.0000000000000E-02  1.1566973617558E-01 -5.3758227935321E-02
     4  3.0000000000000E-02  1.7328467589311E-01 -8.0357097124403E-02
     5  4.0000000000000E-02  2.3063619290730E-01 -1.0662098981589E-01
     6  5.0000000000000E-02  2.8763729628947E-01 -1.3244043213544E-01
     7  6.0000000000000E-02  3.4420169058719E-01 -1.5770780226922E-01
     8  7.0000000000000E-02  4.0024394412384E-01 -1.8231776777845E-01
     9  8.0000000000000E-02  4.5567965367107E-01 -2.0616770616691E-01
    10  9.0000000000000E-02  5.1042560485315E-01 -2.2915810573333E-01
    11  1.0000000000000E-01  5.6439992768705E-01 -2.5119294394192E-01
    12  1.1000000000000E-01  6.1752224671210E-01 -2.7218004077423E-01
    13  1.2000000000000E-01  6.6971382521950E-01 -2.9203138478014E-01
    14  1.3000000000000E-01  7.2089770315252E-01 -3.1066342982482E-01
    15  1.4000000000000E-01  7.7099882831316E-01 -3.2799736082637E-01
    16  1.5000000000000E-01  8.1994418057909E-01 -3.4395932709443E-01
    17  1.6000000000000E-01  8.6766288890544E-01 -3.5848064220921E-01
    18  1.7000000000000E-01  9.1408634095813E-01 -3.7149794971897E-01
    19  1.8000000000000E-01  9.5914828529836E-01 -3.8295335428007E-01
    20  1.9000000000000E-01  1.0027849261107E+00 -3.9279451821142E-01
    21  2.0000000000000E-01  1.0449350105389E+00 -4.0097472378281E-01
    22  2.1000000000000E-01  1.0855399087628E+00 -4.0745290189868E-01
    23  2.2000000000000E-01  1.1245436870177E+00 -4.1219362817270E-01
    24  2.3000000000000E-01  1.1618931738183E+00 -4.1516708771043E-01
    25  2.4000000000000E-01  1.1975380197109E+00 -4.1634901022227E-01
    26  2.5000000000000E-01  1.2314307509265E+00 -4.1572057737594E-01
    27  2.6000000000000E-01  1.2635268173589E+00 -4.1326830456102E-01
    28  2.7000000000000E-01  1.2937846353277E+00 -4.0898389947629E-01
    29  2.8000000000000E-01  1.3221656256217E+00 -4.0286410016031E-01
    30  2.9000000000000E-01  1.3486342473410E+00 -3.9491049526417E-01
    31  3.0000000000000E-01  1.3731580280734E+00 -3.8512932951093E-01
    32  3.1000000000000E-01  1.3957075909481E+00 -3.7353129739662E-01
    33  3.2000000000000E-01  1.4162566791071E+00 -3.6013132826135E-01
    34  3.3000000000000E-01  1.4347821781265E+00 -3.4494836589548E-01
    35  3.4000000000000E-01  1.4512641368961E+00 -3.2800514584301E-01
    36  3.5000000000000E-01  1.4656857874423E+00 -3.0932797352363E-01
    37  3.6000000000000E-01  1.4780335641352E+00 -2.8894650621495E-01
    38  3.7000000000000E-01  1.4882971226803E+00 -2.6689354181860E-01
    39  3.8000000000000E-01  1.4964693592362E+00 -2.4320481717906E-01
    40  3.9000000000000E-01  1.5025464299390E+00 -2.1791881853297E-01
    41  4.0000000000000E-01  1.5065277710467E+00 -1.9107660644291E-01
    42  4.1000000000000E-01  1.5084161198362E+00 -1.6272165731232E-01
    43  4.2000000000000E-01  1.5082175363110E+00 -1.3289972329372E-01
    44  4.3000000000000E-01  1.5059414256860E+00 -1.0165871209071E-01
    45  4.4000000000000E-01  1.5016005615309E+00 -6.9048587819786E-02
    46  4.5000000000000E-01  1.4952111093597E+00 -3.5121293745422E-02
    47  4.6000000000000E-01  1.4867926503610E+00  6.9302667316825E-05
    48  4.7000000000000E-01  1.4763682048736E+00  3.6467442317220E-02
    49  4.8000000000000E-01  1.4639642551145E+00  7.4015484969449E-02
    50  4.9000000000000E-01  1.4496107665823E+00  1.1265389840519E-01
    51  5.0000000000000E-01  1.4333412074700E+00  1.5232122731343E-01
    52  5.1000000000000E-01  1.4151925653409E+00  1.9295404339810E-01
    53  5.2000000000000E-01  1.3952053602457E+00  2.3448687854071E-01
    54  5.3000000000000E-01  1.3734236533941E+00  2.7685214320837E-01
    55  5.4000000000000E-01  1.3498950504306E+00  3.1998003262635E-01
    56  5.5000000000000E-01  1.3246706983209E+00  3.6379842353719E-01
    57  5.6000000000000E-01  1.2978052748106E+00  4.0823276464258E-01
    58  5.7000000000000E-01  1.2693569693965E+00  4.5320596406311E-01
    59  5.8000000000000E-01  1.2393874547332E+00  4.9863827735418E-01
    60  5.9000000000000E-01  1.2079618473971E+00  5.4444719977731E-01
    61  6.0000000000000E-01  1.1751486569456E+00  5.9054736664380E-01
    62  6.1000000000000E-01  1.1410197222311E+00  6.3685046561977E-01
    63  6.2000000000000E-01  1.1056501339774E+00  6.8326516490414E-01
    64  6.3000000000000E-01  1.0691181426785E+00  7.2969706116475E-01
    65  6.4000000000000E-01  1.0315050509524E+00  7.7604865104063E-01
    66  6.5000000000000E-01  9.9289508957081E-01  8.2221932988911E-01
    67  6.6000000000000E-01  9.5337527648162E-01  8.6810542127696E-01
    68  6.7000000000000E-01  9.1303525826124E-01  9.1360024048399E-01
    69  6.8000000000000E-01  8.7196713355586E-01  9.5859419500818E-01
    70  6.9000000000000E-01  8.3026525821413E-01  1.0029749247344E+00
    71  7.0000000000000E-01  7.8802603196283E-01  1.0466274840570E+00
    72  7.1000000000000E-01  7.4534766663898E-01  1.0894345678329E+00
    73  7.2000000000000E-01  7.0232993616125E-01  1.1312767825909E+00
    74  7.3000000000000E-01  6.5907390860063E-01  1.1720329639347E+00
    75  7.4000000000000E-01  6.1568166089309E-01  1.2115805405658E+00
    76  7.5000000000000E-01  5.7225597692345E-01  1.2497959448074E+00
    77  7.6000000000000E-01  5.2890002989836E-01  1.2865550689562E+00
    78  7.7000000000000E-01  4.8571705011538E-01  1.3217337662132E+00
    79  7.8000000000000E-01  4.4280997942202E-01  1.3552083943670E+00
    80  7.9000000000000E-01  4.0028111384221E-01  1.3868563998212E+00
    81  8.0000000000000E-01  3.5823173602502E-01  1.4165569389843E+00
    82  8.1000000000000E-01  3.1676173934001E-01  1.4441915334750E+00
    83  8.2000000000000E-01  2.7596924560376E-01  1.4696447550550E+00
    84  8.3000000000000E-01  2.3595021856939E-01  1.4928049356773E+00
    85  8.4000000000000E-01  1.9679807544548E-01  1.5135648975566E+00
    86  8.5000000000000E-01  1.5860329882886E-01  1.5318226977134E+00
    87  8.6000000000000E-01  1.2145305153716E-01  1.5474823810403E+00
    88  8.7000000000000E-01  8.5430796908796E-02  1.5604547355822E+00
    89  8.8000000000000E-01  5.0615927200012E-02  1.5706580434192E+00
    90  8.9000000000000E-01  1.7083402748826E-02  1.5780188202991E+00
    91  9.0000000000000E-01 -1.5096595407276E-02  1.5824725369870E+00
    92  9.1000000000000E-01 -4.5858996778989E-02  1.5839643151884E+00
    93  9.2000000000000E-01 -7.5144153887855E-02  1.5824495908570E+00
    94  9.3000000000000E-01 -1.0289813334893E-01  1.5778947377329E+00
    95  9.4000000000000E-01 -1.2907298305829E-01  1.5702776440581E+00
    96  9.5000000000000E-01 -1.5362697307519E-01  1.5595882355932E+00
    97  9.6000000000000E-01 -1.7652480791794E-01  1.5458289383173E+00
    98  9.7000000000000E-01 -1.9773780814552E-01  1.5290150745115E+00
    99  9.8000000000000E-01 -2.1724405927339E-01  1.5091751863333E+00
   100  9.9000000000000E-01 -2.3502852626977E-01  1.4863512814486E+00
   101  1.0000000000000E+00 -2.5108313209719E-01  1.4605989958274E+00
   102  1.0100000000000E+00 -2.6540679900187E-01  1.4319876694026E+00
   103  1.0200000000000E+00 -2.7800545150777E-01  1.4006003309427E+00
   104  1.0300000000000E+00 -2.8889198034227E-01  1.3665335891963E+00
   105  1.0400000000000E+00 -2.9808616680234E-01  1.3298974281146E+00
   106  1.0500000000000E+00 -3.0561456736347E-01  1.2908149047460E+00
   107  1.0600000000000E+00 -3.1151035863429E-01  1.2494217492174E+00
   108  1.0700000000000E+00 -3.1581314306498E-01  1.2058658670594E+00
   109  1.0800000000000E+00 -3.1856871612659E-01  1.1603067449923E+00
   110  1.0900000000000E+00 -3.1982879598502E-01  1.1129147621511E+00
   111  1.1000000000000E+00 -3.1965071699767E-01  1.0638704095954E+00
   112  1.1100000000000E+00 -3.1809708865797E-01  1.0133634217982E+00
   113  1.1200000000000E+00 -3.1523542190062E-01  9.6159182463998E-01
   114  1.1300000000000E+00 -3.1113772495607E-01  9.0876090524063E-01
   115  1.1400000000000E+00 -3.0588007120225E-01  8.5508210972200E-01
   116  1.1500000000000E+00 -2.9954214170410E-01  8.0077187571832E-01
   117  1.1600000000000E+00 -2.9220674535251E-01  7.4605040711378E-01
   118  1.1700000000000E+00 -2.8395931971251E-01  6.9114039909150E-01
   119  1.1800000000000E+00 -2.7488741586363E-01  6.3626572211214E-01
   120  1.1900000000000E+00 -2.6508017066098E-01  5.8165007389941E-01
   121  1.2000000000000E+00 -2.5462776996155E-01  5.2751560888743E-01
   122  1.2100000000000E+00 -2.4362090644661E-01  4.7408155487592E-01
   123  1.2200000000000E+00 -2.3215023572431E-01  4.2156282683999E-01
   124  1.2300000000000E+00 -2.2030583441797E-01  3.7016864794774E-01
   125  1.2400000000000E+00 -2.0817666393280E-01  3.2010118784937E-01
   126  1.2500000000000E+00 -1.9585004354776E-01  2.7155422821361E-01
   127  1.2600000000000E+00 -1.8341113639937E-01  2.2471186530250E-01
   128  1.2700000000000E+00 -1.7094245181106E-01  1.7974725909191E-01
   129  1.2800000000000E+00 -1.5852336727571E-01  1.3682143806547E-01
   130  1.2900000000000E+00 -1.4622967322258E-01  9.6082168340271E-02
   131  1.3000000000000E+00 -1.3413314349164E-01  5.7662895217941E-02
   132  1.3100000000000E+00 -1.2230113420292E-01  2.1681764609586E-02
   133  1.3200000000000E+00 -1.1079621344716E-01 -1.1759268940214E-02
   134  1.3300000000000E+00 -9.9675823937092E-02 -4.2575241706633E-02
   135  1.3400000000000E+00 -8.8991980451391E-02 -7.0698882652996E-02
   136  1.3500000000000E+00 -7.8791003577358E-02 -9.6081213573301E-02
   137  1.3600000000000E+00 -6.9113290916791E-02 -1.1869204433540E-01
   138  1.3700000000000E+00 -5.9993126564200E-02 -1.3852036106316E-01
   139  1.3800000000000E+00 -5.1458529304067E-02 -1.5557460613045E-01
   140  1.3900000000000E+00 -4.3531139603952E-02 -1.6988284989908E-01
   141  1.4000000000000E+00 -3.6226145110535E-02 -1.8149285519413E-01
   142  1.4100000000000E+00 -2.9552243984043E-02 -1.9047203657899E-01
   143  1.4200000000000E+00 -2.3511645043426E-02 -1.9690731753887E-01
   144  1.4300000000000E+00 -1.8100103269377E-02 -2.0090489000113E-01
   145  1.4400000000000E+00 -1.3306988663544E-02 -2.0258988242650E-01
   146  1.4500000000000E+00 -9.1153939436280E-03 -2.0210591106820E-01
   147  1.4600000000000E+00 -5.5022471551182E-03 -1.9961465373581E-01
   148  1.4700000000000E+00 -2.4391007728652E-03 -1.9529262054524E-01
   149  1.4800000000000E+00  1.0621381126336E-04 -1.8932446648089E-01
   150  1.4900000000000E+00  2.1687133512408E-03 -1.8189982131182E-01
   151  1.5000000000000E+00  3.7852514453051E-03 -1.7320969885512E-01
   152  1.5100000000000E+00  4.9994893549200E-03 -1.6346714628838E-01
   153  1.5200000000000E+00  5.8245545948946E-03 -1.5275652823858E-01
   154  1.5300000000000E+00  6.2983418893462E-03 -1.4125906560946E-01
   155  1.5400000000000E+00  6.5154829626849E-03 -1.2938152403523E-01
   156  1.5500000000000E+00  6.4875315200780E-03 -1.1718961884058E-01
   157  1.5600000000000E+00  6.2609765930048E-03 -1.0488832852417E-01
   158  1.5700000000000E+00  5.8751371186722E-03 -9.2651206441639E-02
   159  1.5800000000000E+00  5.3686492126227E-03 -8.0647294340844E-02
   160  1.5900000000000E+00  4.7780906770026E-03 -6.9036035583589E-02
   161  1.6000000000000E+00  4.1376126797745E-03 -5.7966272085047E-02
   162  1.6100000000000E+00  3.4785624132544E-03 -4.7575140194463E-02
   163  1.6200000000000E+00  2.8275750119205E-03 -3.7983008379374E-02
   164  1.6300000000000E+00  2.2043085727039E-03 -2.9287289182055E-02
   165  1.6400000000000E+00  1.6317928610776E-03 -2.1589283200627E-02
   166  1.6500000000000E+00  1.1292713840623E-03 -1.4975897824799E-02
   167  1.6600000000000E+00  7.1125628652028E-04 -9.5170886450071E-03
   168  1.6700000000000E+00  3.8738362555932E-04 -5.2658113270551E-03
   169  1.6800000000000E+00  1.6193566790509E-04 -2.2522182195181E-03
   170  1.6900000000000E+00  3.5553051013335E-05 -5.1016065347057E-04
   171  1.7000000000000E+00 -1.0449408890014E-06  1.5406343234191E-05
   172  1.7100000000000E+00  2.1029177284217E-07 -3.0663768855229E-06
   173  1.72 -0.  0.
   174  1.73  0. -0.
   175  1.74  0. -0.
   176  1.75  0.  0.
   177  1.76  0.  0.
   178  1.77  0.  0.
   179  1.78  0.  0.
   180  1.79  0.  0.
   181  1.80  0.  0.
   182  1.81  0.  0.
   183  1.82  0.  0.
   184  1.83  0.  0.
   185  1.84  0.  0.
   186  1.85  0.  0.
   187  1.86  0.  0.
   188  1.87  0.  0.
   189  1.88  0.  0.
   190  1.89  0.  0.
   191  1.90  0.  0.
   192  1.91  0.  0.
   193  1.92  0.  0.
   194  1.93  0.  0.
   195  1.94  0.  0.
   196  1.95  0.  0.
   197  1.96  0.  0.
   198  1.97  0.  0.
   199  1.98  0.  0.
   200  1.99  0.  0.
   201  2.00  0.  0.
   202  2.01  0.  0.
   203  2.02  0.  0.
   204  2.03  0.  0.
   205  2.04  0.  0.
   206  2.05  0.  0.
   207  2.06  0.  0.
   208  2.07  0.  0.
   209  2.08  0.  0.
   210  2.09  0.  0.
   211  2.10  0.  0.
   212  2.11  0.  0.
   213  2.12  0.  0.
   214  2.13  0.  0.
   215  2.14  0.  0.
   216  2.15  0.  0.
   217  2.16  0.  0.
   218  2.17  0.  0.
   219  2.18  0.  0.
   220  2.19  0.  0.
   221  2.20  0.  0.
   222  2.21  0.  0.
   223  2.22  0.  0.
   224  2.23  0.  0.
   225  2.24  0.  0.
   226  2.25  0.  0.
   227  2.26  0.  0.
   228  2.27  0.  0.
   229  2.28  0.  0.
   230  2.29  0.  0.
   231  2.30  0.  0.
   232  2.31  0.  0.
   233  2.32  0.  0.
   234  2.33  0.  0.
   235  2.34  0.  0.
   236  2.35  0.  0.
   237  2.36  0.  0.
   238  2.37  0.  0.
   239  2.38  0.  0.
   240  2.39  0.  0.
   241  2.40  0.  0.
   242  2.41  0.  0.
   243  2.42  0.  0.
   244  2.43  0.  0.
   245  2.44  0.  0.
   246  2.45  0.  0.
   247  2.46  0.  0.
   248  2.47  0.  0.
   249  2.48  0.  0.
   250  2.49  0.  0.
   251  2.50  0.  0.
   252  2.51  0.  0.
   253  2.52  0.  0.
   254  2.53  0.  0.
   255  2.54  0.  0.
   256  2.55  0.  0.
   257  2.56  0.  0.
   258  2.57  0.  0.
   259  2.58  0.  0.
   260  2.59  0.  0.
   261  2.60  0.  0.
   262  2.61  0.  0.
   263  2.62  0.  0.
   264  2.63  0.  0.
   265  2.64  0.  0.
   266  2.65  0.  0.
   267  2.66  0.  0.
   268  2.67  0.  0.
   269  2.68  0.  0.
   270  2.69  0.  0.
   271  2.70  0.  0.
   272  2.71  0.  0.
   273  2.72  0.  0.
   274  2.73  0.  0.
   275  2.74  0.  0.
   276  2.75  0.  0.
   277  2.76  0.  0.
   278  2.77  0.  0.
   279  2.78  0.  0.
   280  2.79  0.  0.
   281  2.80  0.  0.
   282  2.81  0.  0.
   283  2.82  0.  0.
   284  2.83  0.  0.
   285  2.84  0.  0.
   286  2.85  0.  0.
   287  2.86  0.  0.
   288  2.87  0.  0.
   289  2.88  0.  0.
   290  2.89  0.  0.
   291  2.90  0.  0.
   292  2.91  0.  0.
   293  2.92  0.  0.
   294  2.93  0.  0.
   295  2.94  0.  0.
   296  2.95  0.  0.
   297  2.96  0.  0.
   298  2.97  0.  0.
   299  2.98  0.  0.
   300  2.99  0.  0.
   301  3.00  0.  0.
   302  3.01  0.  0.
   303  3.02  0.  0.
   304  3.03  0.  0.
   305  3.04  0.  0.
   306  3.05  0.  0.
   307  3.06  0.  0.
   308  3.07  0.  0.
   309  3.08  0.  0.
   310  3.09  0.  0.
   311  3.10  0.  0.
   312  3.11  0.  0.
   313  3.12  0.  0.
   314  3.13  0.  0.
   315  3.14  0.  0.
   316  3.15  0.  0.
   317  3.16  0.  0.
   318  3.17  0.  0.
   319  3.18  0.  0.
   320  3.19  0.  0.
   321  3.20  0.  0.
   322  3.21  0.  0.
   323  3.22  0.  0.
   324  3.23  0.  0.
   325  3.24  0.  0.
   326  3.25  0.  0.
   327  3.26  0.  0.
   328  3.27  0.  0.
   329  3.28  0.  0.
   330  3.29  0.  0.
   331  3.30  0.  0.
   332  3.31  0.  0.
   333  3.32  0.  0.
   334  3.33  0.  0.
   335  3.34  0.  0.
   336  3.35  0.  0.
   337  3.36  0.  0.
   338  3.37  0.  0.
   339  3.38  0.  0.
   340  3.39  0.  0.
   341  3.40  0.  0.
   342  3.41  0.  0.
   343  3.42  0.  0.
   344  3.43  0.  0.
   345  3.44  0.  0.
   346  3.45  0.  0.
   347  3.46  0.  0.
   348  3.47  0.  0.
   349  3.48  0.  0.
   350  3.49  0.  0.
   351  3.50  0.  0.
   352  3.51  0.  0.
   353  3.52  0.  0.
   354  3.53  0.  0.
   355  3.54  0.  0.
   356  3.55  0.  0.
   357  3.56  0.  0.
   358  3.57  0.  0.
   359  3.58  0.  0.
   360  3.59  0.  0.
   361  3.60  0.  0.
   362  3.61  0.  0.
   363  3.62  0.  0.
   364  3.63  0.  0.
   365  3.64  0.  0.
   366  3.65  0.  0.
   367  3.66  0.  0.
   368  3.67  0.  0.
   369  3.68  0.  0.
   370  3.69  0.  0.
   371  3.70  0.  0.
   372  3.71  0.  0.
   373  3.72  0.  0.
   374  3.73  0.  0.
   375  3.74  0.  0.
   376  3.75  0.  0.
   377  3.76  0.  0.
   378  3.77  0.  0.
   379  3.78  0.  0.
   380  3.79  0.  0.
   381  3.80  0.  0.
   382  3.81  0.  0.
   383  3.82  0.  0.
   384  3.83  0.  0.
   385  3.84  0.  0.
   386  3.85  0.  0.
   387  3.86  0.  0.
   388  3.87  0.  0.
   389  3.88  0.  0.
   390  3.89  0.  0.
   391  3.90  0.  0.
   392  3.91  0.  0.
   393  3.92  0.  0.
   394  3.93  0.  0.
   395  3.94  0.  0.
   396  3.95  0.  0.
   397  3.96  0.  0.
   398  3.97  0.  0.
   399  3.98  0.  0.
   400  3.99  0.  0.
   401  4.00  0.  0.
   402  4.01  0.  0.
   403  4.02  0.  0.
   404  4.03  0.  0.
   405  4.04  0.  0.
   406  4.05  0.  0.
   407  4.06  0.  0.
   408  4.07  0.  0.
   409  4.08  0.  0.
   410  4.09  0.  0.
   411  4.10  0.  0.
   412  4.11  0.  0.
   413  4.12  0.  0.
   414  4.13  0.  0.
   415  4.14  0.  0.
   416  4.15  0.  0.
   417  4.16  0.  0.
   418  4.17  0.  0.
   419  4.18  0.  0.
   420  4.19  0.  0.
   421  4.20  0.  0.
   422  4.21  0.  0.
   423  4.22  0.  0.
   424  4.23  0.  0.
   425  4.24  0.  0.
   426  4.25  0.  0.
   427  4.26  0.  0.
   428  4.27  0.  0.
   429  4.28  0.  0.
   430  4.29  0.  0.
   431  4.30  0.  0.
   432  4.31  0.  0.
   433  4.32  0.  0.
   434  4.33  0.  0.
   435  4.34  0.  0.
   436  4.35  0.  0.
   437  4.36  0.  0.
   438  4.37  0.  0.
   439  4.38  0.  0.
   440  4.39  0.  0.
   441  4.40  0.  0.
   442  4.41  0.  0.
   443  4.42  0.  0.
   444  4.43  0.  0.
   445  4.44  0.  0.
   446  4.45  0.  0.
   447  4.46  0.  0.
   448  4.47  0.  0.
   449  4.48  0.  0.
   450  4.49  0.  0.
   451  4.50  0.  0.
   452  4.51  0.  0.
   453  4.52  0.  0.
   454  4.53  0.  0.
   455  4.54  0.  0.
   456  4.55  0.  0.
   457  4.56  0.  0.
   458  4.57  0.  0.
   459  4.58  0.  0.
   460  4.59  0.  0.
   461  4.60  0.  0.
   462  4.61  0.  0.
   463  4.62  0.  0.
   464  4.63  0.  0.
   465  4.64  0.  0.
   466  4.65  0.  0.
   467  4.66  0.  0.
   468  4.67  0.  0.
   469  4.68  0.  0.
   470  4.69  0.  0.
   471  4.70  0.  0.
   472  4.71  0.  0.
   473  4.72  0.  0.
   474  4.73  0.  0.
   475  4.74  0.  0.
   476  4.75  0.  0.
   477  4.76  0.  0.
   478  4.77  0.  0.
   479  4.78  0.  0.
   480  4.79  0.  0.
   481  4.80  0.  0.
   482  4.81  0.  0.
   483  4.82  0.  0.
   484  4.83  0.  0.
   485  4.84  0.  0.
   486  4.85  0.  0.
   487  4.86  0.  0.
   488  4.87  0.  0.
   489  4.88  0.  0.
   490  4.89  0.  0.
   491  4.90  0.  0.
   492  4.91  0.  0.
   493  4.92  0.  0.
   494  4.93  0.  0.
   495  4.94  0.  0.
   496  4.95  0.  0.
   497  4.96  0.  0.
   498  4.97  0.  0.
   499  4.98  0.  0.
   500  4.99  0.  0.
   501  5.00  0.  0.
   502  5.01  0.  0.
   503  5.02  0.  0.
   504  5.03  0.  0.
   505  5.04  0.  0.
   506  5.05  0.  0.
   507  5.06  0.  0.
   508  5.07  0.  0.
   509  5.08  0.  0.
   510  5.09  0.  0.
   511  5.10  0.  0.
   512  5.11  0.  0.
   513  5.12  0.  0.
   514  5.13  0.  0.
   515  5.14  0.  0.
   516  5.15  0.  0.
   517  5.16  0.  0.
   518  5.17  0.  0.
   519  5.18  0.  0.
   520  5.19  0.  0.
   521  5.20  0.  0.
   522  5.21  0.  0.
   523  5.22  0.  0.
   524  5.23  0.  0.
   525  5.24  0.  0.
   526  5.25  0.  0.
   527  5.26  0.  0.
   528  5.27  0.  0.
   529  5.28  0.  0.
   530  5.29  0.  0.
   531  5.30  0.  0.
   532  5.31  0.  0.
   533  5.32  0.  0.
   534  5.33  0.  0.
   535  5.34  0.  0.
   536  5.35  0.  0.
   537  5.36  0.  0.
   538  5.37  0.  0.
   539  5.38  0.  0.
   540  5.39  0.  0.
   541  5.40  0.  0.
   542  5.41  0.  0.
   543  5.42  0.  0.
   544  5.43  0.  0.
   545  5.44  0.  0.
   546  5.45  0.  0.
   547  5.46  0.  0.
   548  5.47  0.  0.
   549  5.48  0.  0.
   550  5.49  0.  0.
   551  5.50  0.  0.
   552  5.51  0.  0.
   553  5.52  0.  0.
   554  5.53  0.  0.
   555  5.54  0.  0.
   556  5.55  0.  0.
   557  5.56  0.  0.
   558  5.57  0.  0.
   559  5.58  0.  0.
   560  5.59  0.  0.
   561  5.60  0.  0.
   562  5.61  0.  0.
   563  5.62  0.  0.
   564  5.63  0.  0.
   565  5.64  0.  0.
   566  5.65  0.  0.
   567  5.66  0.  0.
   568  5.67  0.  0.
   569  5.68  0.  0.
   570  5.69  0.  0.
   571  5.70  0.  0.
   572  5.71  0.  0.
   573  5.72  0.  0.
   574  5.73  0.  0.
   575  5.74  0.  0.
   576  5.75  0.  0.
   577  5.76  0.  0.
   578  5.77  0.  0.
   579  5.78  0.  0.
   580  5.79  0.  0.
   581  5.80  0.  0.
   582  5.81  0.  0.
   583  5.82  0.  0.
   584  5.83  0.  0.
   585  5.84  0.  0.
   586  5.85  0.  0.
   587  5.86  0.  0.
   588  5.87  0.  0.
   589  5.88  0.  0.
   590  5.89  0.  0.
   591  5.90  0.  0.
   592  5.91  0.  0.
   593  5.92  0.  0.
   594  5.93  0.  0.
   595  5.94  0.  0.
   596  5.95  0.  0.
   597  5.96  0.  0.
   598  5.97  0.  0.
   599  5.98  0.  0.
   600  5.99  0.  0.
   1                         4.8217638787449E+00  7.3093071023863E-01
     1  0.0000000000000E+00  1.5060845626191E-09 -3.5850829874229E-09
     2  1.0000000000000E-02  1.3261653727181E-03 -7.1231731129053E-04
     3  2.0000000000000E-02  5.2991034834864E-03 -2.8424531619347E-03
     4  3.0000000000000E-02  1.1902189428393E-02 -6.3700604375791E-03
     5  4.0000000000000E-02  2.1107877850680E-02 -1.1261562216743E-02
     6  5.0000000000000E-02  3.2877943996774E-02 -1.7470646587004E-02
     7  6.0000000000000E-02  4.7163814930224E-02 -2.4938944392020E-02
     8  7.0000000000000E-02  6.3906984806906E-02 -3.3596875327347E-02
     9  8.0000000000000E-02  8.3039506608774E-02 -4.3364644217923E-02
    10  9.0000000000000E-02  1.0448455139653E-01 -5.4153366141437E-02
    11  1.0000000000000E-01  1.2815702500427E-01 -6.5866296384811E-02
    12  1.1000000000000E-01  1.5396423118619E-01 -7.8400139095720E-02
    13  1.2000000000000E-01  1.8180656955719E-01 -9.1646406968279E-02
    14  1.3000000000000E-01  2.1157825626098E-01 -1.0549280341731E-01
    15  1.4000000000000E-01  2.4316805515911E-01 -1.1982459846973E-01
    16  1.5000000000000E-01  2.7646000746572E-01 -1.3452597004178E-01
    17  1.6000000000000E-01  3.1133414815276E-01 -1.4948128336754E-01
    18  1.7000000000000E-01  3.4766719810832E-01 -1.6457628307345E-01
    19  1.8000000000000E-01  3.8533322193336E-01 -1.7969917471771E-01
    20  1.9000000000000E-01  4.2420424238652E-01 -1.9474157547885E-01
    21  2.0000000000000E-01  4.6415080380901E-01 -2.0959931702066E-01
    22  2.1000000000000E-01  5.0504247834965E-01 -2.2417308730449E-01
    23  2.2000000000000E-01  5.4674831043114E-01 -2.3836890217912E-01
    24  2.3000000000000E-01  5.8913719661359E-01 -2.5209840185893E-01
    25  2.4000000000000E-01  6.3207819978199E-01 -2.6527897180554E-01
    26  2.5000000000000E-01  6.7544079836821E-01 -2.7783369195244E-01
    27  2.6000000000000E-01  7.1909507307420E-01 -2.8969112255376E-01
    28  2.7000000000000E-01  7.6291183524988E-01 -3.0078493909549E-01
    29  2.8000000000000E-01  8.0676270265683E-01 -3.1105343257990E-01
    30  2.9000000000000E-01  8.5052012977947E-01 -3.2043889499103E-01
    31  3.0000000000000E-01  8.9405740109461E-01 -3.2888691278324E-01
    32  3.1000000000000E-01  9.3724859674722E-01 -3.3634559373386E-01
    33  3.2000000000000E-01  9.7996854087906E-01 -3.4276475439840E-01
    34  3.3000000000000E-01  1.0220927433966E+00 -3.4809509665580E-01
    35  3.4000000000000E-01  1.0634973462304E+00 -3.5228740239249E-01
    36  3.5000000000000E-01  1.1040590851213E+00 -3.5529177523079E-01
    37  3.6000000000000E-01  1.1436552776653E+00 -3.5705695735151E-01
    38  3.7000000000000E-01  1.1821638477665E+00 -3.5752974790781E-01
    39  3.8000000000000E-01  1.2194633957911E+00 -3.5665454730183E-01
    40  3.9000000000000E-01  1.2554333226067E+00 -3.5437304874403E-01
    41  4.0000000000000E-01  1.2899540143516E+00 -3.5062409509315E-01
    42  4.1000000000000E-01  1.3229070932321E+00 -3.4534371505675E-01
    43  4.2000000000000E-01  1.3541757379354E+00 -3.3846534849962E-01
    44  4.3000000000000E-01  1.3836450753960E+00 -3.2992026595799E-01
    45  4.4000000000000E-01  1.4112026437170E+00 -3.1963818259078E-01
    46  4.5000000000000E-01  1.4367389240610E+00 -3.0754806182717E-01
    47  4.6000000000000E-01  1.4601479373351E+00 -2.9357909900407E-01
    48  4.7000000000000E-01  1.4813278995502E+00 -2.7766187044190E-01
    49  4.8000000000000E-01  1.5001819278740E+00 -2.5972962879678E-01
    50  4.9000000000000E-01  1.5166187876736E+00 -2.3971972125967E-01
    51  5.0000000000000E-01  1.5305536692919E+00 -2.1757510335301E-01
    52  5.1000000000000E-01  1.5419089819644E+00 -1.9324591779619E-01
    53  5.2000000000000E-01  1.5506151511893E+00 -1.6669110525800E-01
    54  5.3000000000000E-01  1.5566114050533E+00 -1.3788001185688E-01
    55  5.4000000000000E-01  1.5598465344971E+00 -1.0679395706594E-01
    56  5.5000000000000E-01  1.5602796123091E+00 -7.3427725269303E-02
    57  5.6000000000000E-01  1.5578806557664E+00 -3.7790944623109E-02
    58  5.7000000000000E-01  1.5526312183030E+00  9.0681895984874E-05
    59  5.8000000000000E-01  1.5445248963762E+00  4.0174326331832E-02
    60  5.9000000000000E-01  1.5335677388059E+00  8.2399196737003E-02
    61  6.0000000000000E-01  1.5197785472674E+00  1.2668593601444E-01
    62  6.1000000000000E-01  1.5031890582962E+00  1.7293628110220E-01
    63  6.2000000000000E-01  1.4838439990814E+00  2.2103300018860E-01
    64  6.3000000000000E-01  1.4618010114500E+00  2.7084012035275E-01
    65  6.4000000000000E-01  1.4371304407352E+00  3.2220345235118E-01
    66  6.5000000000000E-01  1.4099149886211E+00  3.7495141333056E-01
    67  6.6000000000000E-01  1.3802492315352E+00  4.2889614216674E-01
    68  6.7000000000000E-01  1.3482390086451E+00  4.8383489603942E-01
    69  6.8000000000000E-01  1.3140006859691E+00  5.3955171088285E-01
    70  6.9000000000000E-01  1.2776603054737E+00  5.9581930263861E-01
    71  7.0000000000000E-01  1.2393526302541E+00  6.5240118090170E-01
    72  7.1000000000000E-01  1.1992200989276E+00  7.0905394172173E-01
    73  7.2000000000000E-01  1.1574117041663E+00  7.6552970210589E-01
    74  7.3000000000000E-01  1.1140818118189E+00  8.2157863527237E-01
    75  7.4000000000000E-01  1.0693889382825E+00  8.7695156300842E-01
    76  7.5000000000000E-01  1.0234945046506E+00  9.3140255966689E-01
    77  7.6000000000000E-01  9.7656158667027E-01  9.8469152144163E-01
    78  7.7000000000000E-01  9.2875367966511E-01  1.0365866546289E+00
    79  7.8000000000000E-01  8.8023349731970E-01  1.0868668376224E+00
    80  7.9000000000000E-01  8.3116182257377E-01  1.1353238133970E+00
    81  8.0000000000000E-01  7.8169642785189E-01  1.1817641721780E+00
    82  8.1000000000000E-01  7.3199108047347E-01  1.2260110878255E+00
    83  8.2000000000000E-01  6.8219464737333E-01  1.2679057761148E+00
    84  8.3000000000000E-01  6.3245031124929E-01  1.3073086484705E+00
    85  8.4000000000000E-01  5.8289490797874E-01  1.3441001407232E+00
    86  8.5000000000000E-01  5.3365839265712E-01  1.3781812029659E+00
    87  8.6000000000000E-01  4.8486343895919E-01  1.4094734434750E+00
    88  8.7000000000000E-01  4.3662517376303E-01  1.4379189267735E+00
    89  8.8000000000000E-01  3.8905104616564E-01  1.4634796331130E+00
    90  8.9000000000000E-01  3.4224082721757E-01  1.4861365937739E+00
    91  9.0000000000000E-01  2.9628673397208E-01  1.5058887234775E+00
    92  9.1000000000000E-01  2.5127366884220E-01  1.5227513777280E+00
    93  9.2000000000000E-01  2.0727956284320E-01  1.5367546688906E+00
    94  9.3000000000000E-01  1.6437580912372E-01  1.5479415801512E+00
    95  9.4000000000000E-01  1.2262777130409E-01  1.5563659210533E+00
    96  9.5000000000000E-01  8.2095349590958E-02  1.5620901719632E+00
    97  9.6000000000000E-01  4.2833586458477E-02  1.5651832674895E+00
    98  9.7000000000000E-01  4.8932929092043E-03  1.5657183704989E+00
    99  9.8000000000000E-01 -3.1678324027684E-02  1.5637706888825E+00
   100  9.9000000000000E-01 -6.6837051823365E-02  1.5594153866021E+00
   101  1.0000000000000E+00 -1.0054109974656E-01  1.5527256387907E+00
   102  1.0100000000000E+00 -1.3275058072766E-01  1.5437708778082E+00
   103  1.0200000000000E+00 -1.6342706422081E-01  1.5326152732095E+00
   104  1.0300000000000E+00 -1.9253321473940E-01  1.5193164836424E+00
   105  1.0400000000000E+00 -2.2003252862784E-01  1.5039247128405E+00
   106  1.0500000000000E+00 -2.4588917920312E-01  1.4864820952297E+00
   107  1.0600000000000E+00 -2.7006797770386E-01  1.4670224293493E+00
   108  1.0700000000000E+00 -2.9253445458195E-01  1.4455712694648E+00
   109  1.0800000000000E+00 -3.1325506261114E-01  1.4221463775455E+00
   110  1.0900000000000E+00 -3.3219750015187E-01  1.3967585294120E+00
   111  1.1000000000000E+00 -3.4933114974957E-01  1.3694126604563E+00
   112  1.1100000000000E+00 -3.6462762413958E-01  1.3401093281167E+00
   113  1.1200000000000E+00 -3.7806140874651E-01  1.3088464604108E+00
   114  1.1300000000000E+00 -3.8961058696563E-01  1.2756213524628E+00
   115  1.1400000000000E+00 -3.9925763197132E-01  1.2404328662972E+00
   116  1.1500000000000E+00 -4.0699024655875E-01  1.2032837833212E+00
   117  1.1600000000000E+00 -4.1280223065905E-01  1.1641832540682E+00
   118  1.1700000000000E+00 -4.1669435470798E-01  1.1231492860031E+00
   119  1.1800000000000E+00 -4.1867521604252E-01  1.0802112076194E+00
   120  1.1900000000000E+00 -4.1876205497251E-01  1.0354120457541E+00
   121  1.2000000000000E+00 -4.1698150714848E-01  9.8881075306091E-01