Tc    ONCVPSP-4.0.1  r_core=   2.44773   2.75882   2.82563
     43.0000     15.0000      230118    zatom,zion,pspd
     8       2   2     4   600     0    pspcod,pspxc,lmax,lloc,mmax,r2well
  5.99000000  5.00000000  0.00000000    rchrg fchrg qchrg
     2     2     2     0     0    nproj
     1     1           extension_switch
   0                         1.6663891536741E+00 -2.9343008618034E-01
     1  0.0000000000000E+00  3.0242475190789E-13  2.5026231087466E-12
     2  1.0000000000000E-02  4.7105702519390E-02  1.2027656659274E-02
     3  2.0000000000000E-02  9.4145763719482E-02  2.4060847897044E-02
     4  3.0000000000000E-02  1.4105464160872E-01  3.6105076972607E-02
     5  4.0000000000000E-02  1.8776699272265E-01  4.8165784639845E-02
     6  5.0000000000000E-02  2.3421777106638E-01  6.0248318226353E-02
     7  6.0000000000000E-02  2.8034232667162E-01  7.2357901108985E-02
     8  7.0000000000000E-02  3.2607650363926E-01  8.4499602715001E-02
     9  8.0000000000000E-02  3.7135673753844E-01  9.6678309175486E-02
    10  9.0000000000000E-02  4.1612015203260E-01  1.0889869475459E-01
    11  1.0000000000000E-01  4.6030465460232E-01  1.2116519417446E-01
    12  1.1000000000000E-01  5.0384903123491E-01  1.3348197595138E-01
    13  1.2000000000000E-01  5.4669303994948E-01  1.4585291685397E-01
    14  1.3000000000000E-01  5.8877750302647E-01  1.5828157758879E-01
    15  1.4000000000000E-01  6.3004439780962E-01  1.7077117981302E-01
    16  1.5000000000000E-01  6.7043694594823E-01  1.8332458456746E-01
    17  1.6000000000000E-01  7.0989970094708E-01  1.9594427221655E-01
    18  1.7000000000000E-01  7.4837863389112E-01  2.0863232397485E-01
    19  1.8000000000000E-01  7.8582121721185E-01  2.2139040509206E-01
    20  1.9000000000000E-01  8.2217650636219E-01  2.3421974976086E-01
    21  2.0000000000000E-01  8.5739521926678E-01  2.4712114780378E-01
    22  2.1000000000000E-01  8.9142981341495E-01  2.6009493318720E-01
    23  2.2000000000000E-01  9.2423456046396E-01  2.7314097440177E-01
    24  2.3000000000000E-01  9.5576561822078E-01  2.8625866674036E-01
    25  2.4000000000000E-01  9.8598109987178E-01  2.9944692649561E-01
    26  2.5000000000000E-01  1.0148411403308E+00  3.1270418709057E-01
    27  2.6000000000000E-01  1.0423079595775E+00  3.2602839714708E-01
    28  2.7000000000000E-01  1.0683459228599E+00  3.3941702048789E-01
    29  2.8000000000000E-01  1.0929215976369E+00  3.5286703805972E-01
    30  2.9000000000000E-01  1.1160038071399E+00  3.6637495175608E-01
    31  3.0000000000000E-01  1.1375636804343E+00  3.7993679011029E-01
    32  3.1000000000000E-01  1.1575746988656E+00  3.9354811582086E-01
    33  3.2000000000000E-01  1.1760127387801E+00  4.0720403506379E-01
    34  3.3000000000000E-01  1.1928561104104E+00  4.2089920853827E-01
    35  3.4000000000000E-01  1.2080855928256E+00  4.3462786418553E-01
    36  3.5000000000000E-01  1.2216844648467E+00  4.4838381151332E-01
    37  3.6000000000000E-01  1.2336385318362E+00  4.6216045745190E-01
    38  3.7000000000000E-01  1.2439361482754E+00  4.7595082366181E-01
    39  3.8000000000000E-01  1.2525682360491E+00  4.8974756520741E-01
    40  3.9000000000000E-01  1.2595282983664E+00  5.0354299050559E-01
    41  4.0000000000000E-01  1.2648124292510E+00  5.1732908245390E-01
    42  4.1000000000000E-01  1.2684193185430E+00  5.3109752063870E-01
    43  4.2000000000000E-01  1.2703502523641E+00  5.4483970451983E-01
    44  4.3000000000000E-01  1.2706091090044E+00  5.5854677748576E-01
    45  4.4000000000000E-01  1.2692023501991E+00  5.7220965167013E-01
    46  4.5000000000000E-01  1.2661390077730E+00  5.8581903341932E-01
    47  4.6000000000000E-01  1.2614306656406E+00  5.9936544929871E-01
    48  4.7000000000000E-01  1.2550914371581E+00  6.1283927252501E-01
    49  4.8000000000000E-01  1.2471379378365E+00  6.2623074971154E-01
    50  4.9000000000000E-01  1.2375892534340E+00  6.3953002781389E-01
    51  5.0000000000000E-01  1.2264669034569E+00  6.5272718116422E-01
    52  5.1000000000000E-01  1.2137948001105E+00  6.6581223848389E-01
    53  5.2000000000000E-01  1.1995992027510E+00  6.7877520976628E-01
    54  5.3000000000000E-01  1.1839086679019E+00  6.9160611292391E-01
    55  5.4000000000000E-01  1.1667539949114E+00  7.0429500009725E-01
    56  5.5000000000000E-01  1.1481681673342E+00  7.1683198352585E-01
    57  5.6000000000000E-01  1.1281862901385E+00  7.2920726088649E-01
    58  5.7000000000000E-01  1.1068455228457E+00  7.4141114000715E-01
    59  5.8000000000000E-01  1.0841850087243E+00  7.5343406287068E-01
    60  5.9000000000000E-01  1.0602458001698E+00  7.6526662882668E-01
    61  6.0000000000000E-01  1.0350707804134E+00  7.7689961693580E-01
    62  6.1000000000000E-01  1.0087045817137E+00  7.8832400737610E-01
    63  6.2000000000000E-01  9.8119350019385E-01  7.9953100184729E-01
    64  6.3000000000000E-01  9.5258540750138E-01  8.1051204291439E-01
    65  6.4000000000000E-01  9.2292965947153E-01  8.2125883223906E-01
    66  6.5000000000000E-01  8.9227700198946E-01  8.3176334765292E-01
    67  6.6000000000000E-01  8.6067947425238E-01  8.4201785903401E-01
    68  6.7000000000000E-01  8.2819030964227E-01  8.5201494295372E-01
    69  6.8000000000000E-01  7.9486383442708E-01  8.6174749606852E-01
    70  6.9000000000000E-01  7.6075536451546E-01  8.7120874723704E-01
    71  7.0000000000000E-01  7.2592110049665E-01  8.8039226834981E-01
    72  7.1000000000000E-01  6.9041802120270E-01  8.8929198386515E-01
    73  7.2000000000000E-01  6.5430377603538E-01  8.9790217905121E-01
    74  7.3000000000000E-01  6.1763657630445E-01  9.0621750693993E-01
    75  7.4000000000000E-01  5.8047508582732E-01  9.1423299400507E-01
    76  7.5000000000000E-01  5.4287831104308E-01  9.2194404458165E-01
    77  7.6000000000000E-01  5.0490549089574E-01  9.2934644404991E-01
    78  7.7000000000000E-01  4.6661598674244E-01  9.3643636081188E-01
    79  7.8000000000000E-01  4.2806917254304E-01  9.4321034709347E-01
    80  7.9000000000000E-01  3.8932432558646E-01  9.4966533860958E-01
    81  8.0000000000000E-01  3.5044051800822E-01  9.5579865313373E-01
    82  8.1000000000000E-01  3.1147650935081E-01  9.6160798801765E-01
    83  8.2000000000000E-01  2.7249064041599E-01  9.6709141670953E-01
    84  8.3000000000000E-01  2.3354072865354E-01  9.7224738432265E-01
    85  8.4000000000000E-01  1.9468396532695E-01  9.7707470230880E-01
    86  8.5000000000000E-01  1.5597681469016E-01  9.8157254229290E-01
    87  8.6000000000000E-01  1.1747491540392E-01  9.8574042912722E-01
    88  8.7000000000000E-01  7.9232984412440E-02  9.8957823322482E-01
    89  8.8000000000000E-01  4.1304723493922E-02  9.9308616223278E-01
    90  8.9000000000000E-01  3.7427286893728E-03  9.9626475210642E-01
    91  9.0000000000000E-01 -3.3401597194663E-02  9.9911485764587E-01
    92  9.1000000000000E-01 -7.0078128823827E-02  1.0016376425559E+00
    93  9.2000000000000E-01 -1.0623809913886E-01  1.0038345690897E+00
    94  9.3000000000000E-01 -1.4183417655948E-01  1.0057073873359E+00
    95  9.4000000000000E-01 -1.7682053843615E-01  1.0072581242074E+00
    96  9.5000000000000E-01 -2.1115294060895E-01  1.0084890721882E+00
    97  9.6000000000000E-01 -2.4478878294473E-01  1.0094027778932E+00
    98  9.7000000000000E-01 -2.7768717073628E-01  1.0100020304930E+00
    99  9.8000000000000E-01 -3.0980897186057E-01  1.0102898500549E+00
   100  9.9000000000000E-01 -3.4111686960554E-01  1.0102694758463E+00
   101  1.0000000000000E+00 -3.7157541108894E-01  1.0099443546454E+00
   102  1.0100000000000E+00 -4.0115105120553E-01  1.0093181291010E+00
   103  1.0200000000000E+00 -4.2981219205263E-01  1.0083946261801E+00
   104  1.0300000000000E+00 -4.5752921779764E-01  1.0071778457372E+00
   105  1.0400000000000E+00 -4.8427452496409E-01  1.0056719492387E+00
   106  1.0500000000000E+00 -5.1002254812653E-01  1.0038812486693E+00
   107  1.0600000000000E+00 -5.3474978101737E-01  1.0018101956470E+00
   108  1.0700000000000E+00 -5.5843479306165E-01  9.9946337076649E-01
   109  1.0800000000000E+00 -5.8105824136874E-01  9.9684547319099E-01
   110  1.0900000000000E+00 -6.0260287822152E-01  9.9396131050624E-01
   111  1.1000000000000E+00 -6.2305355411629E-01  9.9081578884910E-01
   112  1.1100000000000E+00 -6.4239721641761E-01  9.8741390331929E-01
   113  1.1200000000000E+00 -6.6062290370347E-01  9.8376072868010E-01
   114  1.1300000000000E+00 -6.7772173588687E-01  9.7986141035106E-01
   115  1.1400000000000E+00 -6.9368690020957E-01  9.7572115569318E-01
   116  1.1500000000000E+00 -7.0851363321362E-01  9.7134522558463E-01
   117  1.1600000000000E+00 -7.2219919880468E-01  9.6673892628314E-01
   118  1.1700000000000E+00 -7.3474286252967E-01  9.6190760156873E-01
   119  1.1800000000000E+00 -7.4614586219881E-01  9.5685662515954E-01
   120  1.1900000000000E+00 -7.5641137498880E-01  9.5159139339139E-01
   121  1.2000000000000E+00 -7.6554448117043E-01  9.4611731815108E-01
   122  1.2100000000000E+00 -7.7355212460925E-01  9.4043982005216E-01
   123  1.2200000000000E+00 -7.8044307019283E-01  9.3456432184168E-01
   124  1.2300000000000E+00 -7.8622785834231E-01  9.2849624202564E-01
   125  1.2400000000000E+00 -7.9091875676942E-01  9.2224098870123E-01
   126  1.2500000000000E+00 -7.9452970964292E-01  9.1580395358382E-01
   127  1.2600000000000E+00 -7.9707628433041E-01  9.0919050621714E-01
   128  1.2700000000000E+00 -7.9857561588307E-01  9.0240598835607E-01
   129  1.2800000000000E+00 -7.9904634943154E-01  8.9545570851190E-01
   130  1.2900000000000E+00 -7.9850858066135E-01  8.8834493665145E-01
   131  1.3000000000000E+00 -7.9698379453584E-01  8.8107889904263E-01
   132  1.3100000000000E+00 -7.9449480243347E-01  8.7366277324048E-01
   133  1.3200000000000E+00 -7.9106567786495E-01  8.6610168320964E-01
   134  1.3300000000000E+00 -7.8672169093326E-01  8.5840069458068E-01
   135  1.3400000000000E+00 -7.8148924169732E-01  8.5056481004015E-01
   136  1.3500000000000E+00 -7.7539579259682E-01  8.4259896485575E-01
   137  1.3600000000000E+00 -7.6846980009234E-01  8.3450802254063E-01
   138  1.3700000000000E+00 -7.6074064567103E-01  8.2629677066269E-01
   139  1.3800000000000E+00 -7.5223856636393E-01  8.1796991680709E-01
   140  1.3900000000000E+00 -7.4299458491651E-01  8.0953208470238E-01
   141  1.4000000000000E+00 -7.3304043974935E-01  8.0098781052286E-01
   142  1.4100000000000E+00 -7.2240851484069E-01  7.9234153938185E-01
   143  1.4200000000000E+00 -7.1113176965779E-01  7.8359762203268E-01
   144  1.4300000000000E+00 -6.9924366925843E-01  7.7476031179617E-01
   145  1.4400000000000E+00 -6.8677811467863E-01  7.6583376173509E-01
   146  1.4500000000000E+00 -6.7376937371729E-01  7.5682202209798E-01
   147  1.4600000000000E+00 -6.6025201222287E-01  7.4772903805600E-01
   148  1.4700000000000E+00 -6.4626082598179E-01  7.3855864775803E-01
   149  1.4800000000000E+00 -6.3183077330289E-01  7.2931458073018E-01
   150  1.4900000000000E+00 -6.1699690838684E-01  7.2000045664698E-01
   151  1.5000000000000E+00 -6.0179431556423E-01  7.1061978450194E-01
   152  1.5100000000000E+00 -5.8625804448100E-01  7.0117596220587E-01
   153  1.5200000000000E+00 -5.7042304630478E-01  6.9167227664126E-01
   154  1.5300000000000E+00 -5.5432411102106E-01  6.8211190420108E-01
   155  1.5400000000000E+00 -5.3799580588355E-01  6.7249791183995E-01
   156  1.5500000000000E+00 -5.2147241507870E-01  6.6283325866487E-01
   157  1.5600000000000E+00 -5.0478788066008E-01  6.5312079809201E-01
   158  1.5700000000000E+00 -4.8797574480473E-01  6.4336328059446E-01
   159  1.5800000000000E+00 -4.7106909343971E-01  6.3356335706484E-01
   160  1.5900000000000E+00 -4.5410050128363E-01  6.2372358281443E-01
   161  1.6000000000000E+00 -4.3710197834512E-01  6.1384642222896E-01
   162  1.6100000000000E+00 -4.2010491791687E-01  6.0393425409844E-01
   163  1.6200000000000E+00 -4.0314004610149E-01  5.9398937763645E-01
   164  1.6300000000000E+00 -3.8623737290301E-01  5.8401401920106E-01
   165  1.6400000000000E+00 -3.6942614491553E-01  5.7401033972721E-01
   166  1.6500000000000E+00 -3.5273479963850E-01  5.6398044287670E-01
   167  1.6600000000000E+00 -3.3619092144669E-01  5.5392638390927E-01
   168  1.6700000000000E+00 -3.1982119924073E-01  5.4385017927442E-01
   169  1.6800000000000E+00 -3.0365138580324E-01  5.3375381692030E-01
   170  1.6900000000000E+00 -2.8770625888399E-01  5.2363926731244E-01
   171  1.7000000000000E+00 -2.7200958403620E-01  5.1350849515144E-01
   172  1.7100000000000E+00 -2.5658407922560E-01  5.0336347177480E-01
   173  1.7200000000000E+00 -2.4145138123214E-01  4.9320618822483E-01
   174  1.7300000000000E+00 -2.2663201386399E-01  4.8303866896051E-01
   175  1.7400000000000E+00 -2.1214535800203E-01  4.7286298618768E-01
   176  1.7500000000000E+00 -1.9800962349250E-01  4.6268127477843E-01
   177  1.7600000000000E+00 -1.8424182290434E-01  4.5249574774712E-01
   178  1.7700000000000E+00 -1.7085774716681E-01  4.4230871224695E-01
   179  1.7800000000000E+00 -1.5787194310209E-01  4.3212258604819E-01
   180  1.7900000000000E+00 -1.4529769286614E-01  4.2193991445583E-01
   181  1.8000000000000E+00 -1.3314699531019E-01  4.1176338762192E-01
   182  1.8100000000000E+00 -1.2143054927349E-01  4.0159585820525E-01
   183  1.8200000000000E+00 -1.1015773881678E-01  3.9144035932858E-01
   184  1.8300000000000E+00 -9.9336620403948E-02  3.8130012278196E-01
   185  1.8400000000000E+00 -8.8973912037485E-02  3.7117859741857E-01
   186  1.8500000000000E+00 -7.9074984351547E-02  3.6107946768838E-01
   187  1.8600000000000E+00 -6.9643853663699E-02  3.5100667225367E-01
   188  1.8700000000000E+00 -6.0683176984286E-02  3.4096442262974E-01
   189  1.8800000000000E+00 -5.2194248979426E-02  3.3095722179366E-01
   190  1.8900000000000E+00 -4.4177000880733E-02  3.2098988270395E-01
   191  1.9000000000000E+00 -3.6630001331797E-02  3.1106754667407E-01
   192  1.9100000000000E+00 -2.9550459157909E-02  3.0119570154343E-01
   193  1.9200000000000E+00 -2.2934228042018E-02  2.9138019959056E-01
   194  1.9300000000000E+00 -1.6775813086068E-02  2.8162727513420E-01
   195  1.9400000000000E+00 -1.1068379181015E-02  2.7194356184028E-01
   196  1.9500000000000E+00 -5.8037615185418E-03  2.6233610919277E-01
   197  1.9600000000000E+00 -9.7247672780447E-04  2.5281240007520E-01
   198  1.9700000000000E+00  3.4362576320978E-03  2.4338035900300E-01
   199  1.9800000000000E+00  7.4345260355665E-03  2.3404839239403E-01
   200  1.9900000000000E+00  1.1035447520518E-02  2.2482506478060E-01
   201  2.0000000000000E+00  1.4252800970223E-02  2.1571865343494E-01
   202  2.0100000000000E+00  1.7100821812105E-02  2.0673695674741E-01
   203  2.0200000000000E+00  1.9594183087593E-02  1.9788735824456E-01
   204  2.0300000000000E+00  2.1747940881250E-02  1.8917683943873E-01
   205  2.0400000000000E+00  2.3577486890271E-02  1.8061200161073E-01
   206  2.0500000000000E+00  2.5098500772268E-02  1.7219908595280E-01
   207  2.0600000000000E+00  2.6326902424249E-02  1.6394399226555E-01
   208  2.0700000000000E+00  2.7278804353912E-02  1.5585229637229E-01
   209  2.0800000000000E+00  2.7970464200954E-02  1.4792926626937E-01
   210  2.0900000000000E+00  2.8418237469733E-02  1.4017987703523E-01
   211  2.1000000000000E+00  2.8638530537703E-02  1.3260882452425E-01
   212  2.1100000000000E+00  2.8647754007812E-02  1.2522053787636E-01
   213  2.1200000000000E+00  2.8462276475854E-02  1.1801919087618E-01
   214  2.1300000000000E+00  2.8098378786919E-02  1.1100871219971E-01
   215  2.1400000000000E+00  2.7572208857863E-02  1.0419279458991E-01
   216  2.1500000000000E+00  2.6899737145070E-02  9.7574903005648E-02
   217  2.1600000000000E+00  2.6096712839357E-02  9.1158281791976E-02
   218  2.1700000000000E+00  2.5178620871565E-02  8.4945960922367E-02
   219  2.1800000000000E+00  2.4160639814133E-02  7.8940761366279E-02
   220  2.1900000000000E+00  2.3057600765151E-02  7.3145299637586E-02
   221  2.2000000000000E+00  2.1883947302356E-02  6.7561991581822E-02
   222  2.2100000000000E+00  2.0653696595035E-02  6.2193055461823E-02
   223  2.2200000000000E+00  1.9380401761831E-02  5.7040514402786E-02
   224  2.2300000000000E+00  1.8077115562083E-02  5.2106198258946E-02
   225  2.2400000000000E+00  1.6756355507740E-02  4.7391744964880E-02
   226  2.2500000000000E+00  1.5430070481425E-02  4.2898601434940E-02
   227  2.2600000000000E+00  1.4109608944641E-02  3.8628024074301E-02
   228  2.2700000000000E+00  1.2805688817840E-02  3.4581078964884E-02
   229  2.2800000000000E+00  1.1528369266075E-02  3.0758642458847E-02
   230  2.2900000000000E+00  1.0287023582543E-02  2.7161398400304E-02
   231  2.3000000000000E+00  9.0903135772942E-03  2.3789833924680E-02
   232  2.3100000000000E+00  7.9461750176786E-03  2.0644270203865E-02
   233  2.3200000000000E+00  6.8617809718850E-03  1.7724806494414E-02
   234  2.3300000000000E+00  5.8434548560920E-03  1.5031003406340E-02
   235  2.3400000000000E+00  4.8965179531848E-03  1.2561234595205E-02
   236  2.3500000000000E+00  4.0257928644126E-03  1.0314950793022E-02
   237  2.3600000000000E+00  3.2354862646172E-03  8.2922887092849E-03
   238  2.3700000000000E+00  2.5288853525825E-03  6.4928559838773E-03
   239  2.3800000000000E+00  1.9084298518047E-03  4.9160386787697E-03
   240  2.3900000000000E+00  1.3756974902035E-03  3.5609535022471E-03
   241  2.4000000000000E+00  9.3140616870350E-04  2.4264601231807E-03
   242  2.4100000000000E+00  5.7558298034109E-04  1.5116340534601E-03
   243  2.4200000000000E+00  3.0645002649987E-04  8.1263372719248E-04
   244  2.4300000000000E+00  1.2269534019161E-04  3.2905122443271E-04
   245  2.4400000000000E+00  2.6698433129827E-05  7.2636851951042E-05
   246  2.4500000000000E+00 -2.7210757216424E-06 -7.4520109618378E-06
   247  2.4600000000000E+00 -1.3919134236704E-06 -3.8458271432553E-06
   248  2.47  0.  0.
   249  2.48 -0. -0.
   250  2.49 -0. -0.
   251  2.50 -0. -0.
   252  2.51  0.  0.
   253  2.52  0.  0.
   254  2.53  0.  0.
   255  2.54  0.  0.
   256  2.55  0.  0.
   257  2.56  0.  0.
   258  2.57  0.  0.
   259  2.58  0.  0.
   260  2.59  0.  0.
   261  2.60  0.  0.
   262  2.61  0.  0.
   263  2.62  0.  0.
   264  2.63  0.  0.
   265  2.64  0.  0.
   266  2.65  0.  0.
   267  2.66  0.  0.
   268  2.67  0.  0.
   269  2.68  0.  0.
   270  2.69  0.  0.
   271  2.70  0.  0.
   272  2.71  0.  0.
   273  2.72  0.  0.
   274  2.73  0.  0.
   275  2.74  0.  0.
   276  2.75  0.  0.
   277  2.76  0.  0.
   278  2.77  0.  0.
   279  2.78  0.  0.
   280  2.79  0.  0.
   281  2.80  0.  0.
   282  2.81  0.  0.
   283  2.82  0.  0.
   284  2.83  0.  0.
   285  2.84  0.  0.
   286  2.85  0.  0.
   287  2.86  0.  0.
   288  2.87  0.  0.
   289  2.88  0.  0.
   290  2.89  0.  0.
   291  2.90  0.  0.
   292  2.91  0.  0.
   293  2.92  0.  0.
   294  2.93  0.  0.
   295  2.94  0.  0.
   296  2.95  0.  0.
   297  2.96  0.  0.
   298  2.97  0.  0.
   299  2.98  0.  0.
   300  2.99  0.  0.
   301  3.00  0.  0.
   302  3.01  0.  0.
   303  3.02  0.  0.
   304  3.03  0.  0.
   305  3.04  0.  0.
   306  3.05  0.  0.
   307  3.06  0.  0.
   308  3.07  0.  0.
   309  3.08  0.  0.
   310  3.09  0.  0.
   311  3.10  0.  0.
   312  3.11  0.  0.
   313  3.12  0.  0.
   314  3.13  0.  0.
   315  3.14  0.  0.
   316  3.15  0.  0.
   317  3.16  0.  0.
   318  3.17  0.  0.
   319  3.18  0.  0.
   320  3.19  0.  0.
   321  3.20  0.  0.
   322  3.21  0.  0.
   323  3.22  0.  0.
   324  3.23  0.  0.
   325  3.24  0.  0.
   326  3.25  0.  0.
   327  3.26  0.  0.
   328  3.27  0.  0.
   329  3.28  0.  0.
   330  3.29  0.  0.
   331  3.30  0.  0.
   332  3.31  0.  0.
   333  3.32  0.  0.
   334  3.33  0.  0.
   335  3.34  0.  0.
   336  3.35  0.  0.
   337  3.36  0.  0.
   338  3.37  0.  0.
   339  3.38  0.  0.
   340  3.39  0.  0.
   341  3.40  0.  0.
   342  3.41  0.  0.
   343  3.42  0.  0.
   344  3.43  0.  0.
   345  3.44  0.  0.
   346  3.45  0.  0.
   347  3.46  0.  0.
   348  3.47  0.  0.
   349  3.48  0.  0.
   350  3.49  0.  0.
   351  3.50  0.  0.
   352  3.51  0.  0.
   353  3.52  0.  0.
   354  3.53  0.  0.
   355  3.54  0.  0.
   356  3.55  0.  0.
   357  3.56  0.  0.
   358  3.57  0.  0.
   359  3.58  0.  0.
   360  3.59  0.  0.
   361  3.60  0.  0.
   362  3.61  0.  0.
   363  3.62  0.  0.
   364  3.63  0.  0.
   365  3.64  0.  0.
   366  3.65  0.  0.
   367  3.66  0.  0.
   368  3.67  0.  0.
   369  3.68  0.  0.
   370  3.69  0.  0.
   371  3.70  0.  0.
   372  3.71  0.  0.
   373  3.72  0.  0.
   374  3.73  0.  0.
   375  3.74  0.  0.
   376  3.75  0.  0.
   377  3.76  0.  0.
   378  3.77  0.  0.
   379  3.78  0.  0.
   380  3.79  0.  0.
   381  3.80  0.  0.
   382  3.81  0.  0.
   383  3.82  0.  0.
   384  3.83  0.  0.
   385  3.84  0.  0.
   386  3.85  0.  0.
   387  3.86  0.  0.
   388  3.87  0.  0.
   389  3.88  0.  0.
   390  3.89  0.  0.
   391  3.90  0.  0.
   392  3.91  0.  0.
   393  3.92  0.  0.
   394  3.93  0.  0.
   395  3.94  0.  0.
   396  3.95  0.  0.
   397  3.96  0.  0.
   398  3.97  0.  0.
   399  3.98  0.  0.
   400  3.99  0.  0.
   401  4.00  0.  0.
   402  4.01  0.  0.
   403  4.02  0.  0.
   404  4.03  0.  0.
   405  4.04  0.  0.
   406  4.05  0.  0.
   407  4.06  0.  0.
   408  4.07  0.  0.
   409  4.08  0.  0.
   410  4.09  0.  0.
   411  4.10  0.  0.
   412  4.11  0.  0.
   413  4.12  0.  0.
   414  4.13  0.  0.
   415  4.14  0.  0.
   416  4.15  0.  0.
   417  4.16  0.  0.
   418  4.17  0.  0.
   419  4.18  0.  0.
   420  4.19  0.  0.
   421  4.20  0.  0.
   422  4.21  0.  0.
   423  4.22  0.  0.
   424  4.23  0.  0.
   425  4.24  0.  0.
   426  4.25  0.  0.
   427  4.26  0.  0.
   428  4.27  0.  0.
   429  4.28  0.  0.
   430  4.29  0.  0.
   431  4.30  0.  0.
   432  4.31  0.  0.
   433  4.32  0.  0.
   434  4.33  0.  0.
   435  4.34  0.  0.
   436  4.35  0.  0.
   437  4.36  0.  0.
   438  4.37  0.  0.
   439  4.38  0.  0.
   440  4.39  0.  0.
   441  4.40  0.  0.
   442  4.41  0.  0.
   443  4.42  0.  0.
   444  4.43  0.  0.
   445  4.44  0.  0.
   446  4.45  0.  0.
   447  4.46  0.  0.
   448  4.47  0.  0.
   449  4.48  0.  0.
   450  4.49  0.  0.
   451  4.50  0.  0.
   452  4.51  0.  0.
   453  4.52  0.  0.
   454  4.53  0.  0.
   455  4.54  0.  0.
   456  4.55  0.  0.
   457  4.56  0.  0.
   458  4.57  0.  0.
   459  4.58  0.  0.
   460  4.59  0.  0.
   461  4.60  0.  0.
   462  4.61  0.  0.
   463  4.62  0.  0.
   464  4.63  0.  0.
   465  4.64  0.  0.
   466  4.65  0.  0.
   467  4.66  0.  0.
   468  4.67  0.  0.
   469  4.68  0.  0.
   470  4.69  0.  0.
   471  4.70  0.  0.
   472  4.71  0.  0.
   473  4.72  0.  0.
   474  4.73  0.  0.
   475  4.74  0.  0.
   476  4.75  0.  0.
   477  4.76  0.  0.
   478  4.77  0.  0.
   479  4.78  0.  0.
   480  4.79  0.  0.
   481  4.80  0.  0.
   482  4.81  0.  0.
   483  4.82  0.  0.
   484  4.83  0.  0.
   485  4.84  0.  0.
   486  4.85  0.  0.
   487  4.86  0.  0.
   488  4.87  0.  0.
   489  4.88  0.  0.
   490  4.89  0.  0.
   491  4.90  0.  0.
   492  4.91  0.  0.
   493  4.92  0.  0.
   494  4.93  0.  0.
   495  4.94  0.  0.
   496  4.95  0.  0.
   497  4.96  0.  0.
   498  4.97  0.  0.
   499  4.98  0.  0.
   500  4.99  0.  0.
   501  5.00  0.  0.
   502  5.01  0.  0.
   503  5.02  0.  0.
   504  5.03  0.  0.
   505  5.04  0.  0.
   506  5.05  0.  0.
   507  5.06  0.  0.
   508  5.07  0.  0.
   509  5.08  0.  0.
   510  5.09  0.  0.
   511  5.10  0.  0.
   512  5.11  0.  0.
   513  5.12  0.  0.
   514  5.13  0.  0.
   515  5.14  0.  0.
   516  5.15  0.  0.
   517  5.16  0.  0.
   518  5.17  0.  0.
   519  5.18  0.  0.
   520  5.19  0.  0.
   521  5.20  0.  0.
   522  5.21  0.  0.
   523  5.22  0.  0.
   524  5.23  0.  0.
   525  5.24  0.  0.
   526  5.25  0.  0.
   527  5.26  0.  0.
   528  5.27  0.  0.
   529  5.28  0.  0.
   530  5.29  0.  0.
   531  5.30  0.  0.
   532  5.31  0.  0.
   533  5.32  0.  0.
   534  5.33  0.  0.
   535  5.34  0.  0.
   536  5.35  0.  0.
   537  5.36  0.  0.
   538  5.37  0.  0.
   539  5.38  0.  0.
   540  5.39  0.  0.
   541  5.40  0.  0.
   542  5.41  0.  0.
   543  5.42  0.  0.
   544  5.43  0.  0.
   545  5.44  0.  0.
   546  5.45  0.  0.
   547  5.46  0.  0.
   548  5.47  0.  0.
   549  5.48  0.  0.
   550  5.49  0.  0.
   551  5.50  0.  0.
   552  5.51  0.  0.
   553  5.52  0.  0.
   554  5.53  0.  0.
   555  5.54  0.  0.
   556  5.55  0.  0.
   557  5.56  0.  0.
   558  5.57  0.  0.
   559  5.58  0.  0.
   560  5.59  0.  0.
   561  5.60  0.  0.
   562  5.61  0.  0.
   563  5.62  0.  0.
   564  5.63  0.  0.
   565  5.64  0.  0.
   566  5.65  0.  0.
   567  5.66  0.  0.
   568  5.67  0.  0.
   569  5.68  0.  0.
   570  5.69  0.  0.
   571  5.70  0.  0.
   572  5.71  0.  0.
   573  5.72  0.  0.
   574  5.73  0.  0.
   575  5.74  0.  0.
   576  5.75  0.  0.
   577  5.76  0.  0.
   578  5.77  0.  0.
   579  5.78  0.  0.
   580  5.79  0.  0.
   581  5.80  0.  0.
   582  5.81  0.  0.
   583  5.82  0.  0.
   584  5.83  0.  0.
   585  5.84  0.  0.
   586  5.85  0.  0.
   587  5.86  0.  0.
   588  5.87  0.  0.
   589  5.88  0.  0.
   590  5.89  0.  0.
   591  5.90  0.  0.
   592  5.91  0.  0.
   593  5.92  0.  0.
   594  5.93  0.  0.
   595  5.94  0.  0.
   596  5.95  0.  0.
   597  5.96  0.  0.
   598  5.97  0.  0.
   599  5.98  0.  0.
   600  5.99  0.  0.
   1                        -9.6159015464677E-01 -2.4811454996428E-01
     1  0.0000000000000E+00  5.3421026283140E-12 -9.0539745839502E-11
     2  1.0000000000000E-02  4.7904841363198E-05  3.5207272584816E-04
     3  2.0000000000000E-02  1.9197263543973E-04  1.4073823649703E-03
     4  3.0000000000000E-02  4.3326234540377E-04  3.1632016373239E-03
     5  4.0000000000000E-02  7.7353608412528E-04  5.6149795765303E-03
     6  5.0000000000000E-02  1.2152548646728E-03  8.7563334540055E-03
     7  6.0000000000000E-02  1.7615726294930E-03  1.2579037817675E-02
     8  7.0000000000000E-02  2.4163285372845E-03  1.7073010985859E-02
     9  8.0000000000000E-02  3.1840374812404E-03  2.2226299427451E-02
    10  9.0000000000000E-02  4.0698788076694E-03  2.8025060545557E-02
    11  1.0000000000000E-01  5.0796831998136E-03  3.4453544462078E-02
    12  1.1000000000000E-01  6.2199176883841E-03  4.1494075473921E-02
    13  1.2000000000000E-01  7.4976687477360E-03  4.9127033917754E-02
    14  1.3000000000000E-01  8.9206234350382E-03  5.7330839237755E-02
    15  1.4000000000000E-01  1.0497048529124E-02  6.6081935099225E-02
    16  1.5000000000000E-01  1.2235767626151E-02  7.5354777429860E-02
    17  1.6000000000000E-01  1.4146136150754E-02  8.5121826299291E-02
    18  1.7000000000000E-01  1.6238014244018E-02  9.5353542565171E-02
    19  1.8000000000000E-01  1.8521737493527E-02  1.0601839022137E-01
    20  1.9000000000000E-01  2.1008085475771E-02  1.1708284537928E-01
    21  2.0000000000000E-01  2.3708248087473E-02  1.2851141279799E-01
    22  2.1000000000000E-01  2.6633789649899E-02  1.4026665085158E-01
    23  2.2000000000000E-01  2.9796610778797E-02  1.5230920578395E-01
    24  2.3000000000000E-01  3.3208908022439E-02  1.6459785605181E-01
    25  2.4000000000000E-01  3.6883131281067E-02  1.7708956749636E-01
    26  2.5000000000000E-01  4.0831939032961E-02  1.8973956001366E-01
    27  2.6000000000000E-01  4.5068151405176E-02  2.0250138631285E-01
    28  2.7000000000000E-01  4.9604701140719E-02  2.1532702326214E-01
    29  2.8000000000000E-01  5.4454582528412E-02  2.2816697622356E-01
    30  2.9000000000000E-01  5.9630798376847E-02  2.4097039667183E-01
    31  3.0000000000000E-01  6.5146305129549E-02  2.5368521327957E-01
    32  3.1000000000000E-01  7.1013956234549E-02  2.6625827653209E-01
    33  3.2000000000000E-01  7.7246443898026E-02  2.7863551681134E-01
    34  3.3000000000000E-01  8.3856239368221E-02  2.9076211576089E-01
    35  3.4000000000000E-01  9.0855531912365E-02  3.0258269061350E-01
    36  3.5000000000000E-01  9.8256166665853E-02  3.1404149103097E-01
    37  3.6000000000000E-01  1.0606958154895E-01  3.2508260787378E-01
    38  3.7000000000000E-01  1.1430674346204E-01  3.3565019318678E-01
    39  3.8000000000000E-01  1.2297808398545E-01  3.4568869055798E-01
    40  3.9000000000000E-01  1.3209343482431E-01  3.5514307488179E-01
    41  4.0000000000000E-01  1.4166196325200E-01  3.6395910043651E-01
    42  4.1000000000000E-01  1.5169210781862E-01  3.7208355607078E-01
    43  4.2000000000000E-01  1.6219151460137E-01  3.7946452618489E-01
    44  4.3000000000000E-01  1.7316697428417E-01  3.8605165609225E-01
    45  4.4000000000000E-01  1.8462436036172E-01  3.9179642025493E-01
    46  4.5000000000000E-01  1.9656856877025E-01  3.9665239180591E-01
    47  4.6000000000000E-01  2.0900345925208E-01  4.0057551169996E-01
    48  4.7000000000000E-01  2.2193179876449E-01  4.0352435577682E-01
    49  4.8000000000000E-01  2.3535520724479E-01  4.0546039797412E-01
    50  4.9000000000000E-01  2.4927410604282E-01  4.0634826789483E-01
    51  5.0000000000000E-01  2.6368766932971E-01  4.0615600091505E-01
    52  5.1000000000000E-01  2.7859377878693E-01  4.0485527901295E-01
    53  5.2000000000000E-01  2.9398898187316E-01  4.0242166050961E-01
    54  5.3000000000000E-01  3.0986845395761E-01  3.9883479693668E-01
    55  5.4000000000000E-01  3.2622596459751E-01  3.9407863528514E-01
    56  5.5000000000000E-01  3.4305384822476E-01  3.8814160394320E-01
    57  5.6000000000000E-01  3.6034297949142E-01  3.8101678069989E-01
    58  5.7000000000000E-01  3.7808275350721E-01  3.7270204127349E-01
    59  5.8000000000000E-01  3.9626107118291E-01  3.6320018692067E-01
    60  5.9000000000000E-01  4.1486432987328E-01  3.5251904979149E-01
    61  6.0000000000000E-01  4.3387741949032E-01  3.4067157481823E-01
    62  6.1000000000000E-01  4.5328372423412E-01  3.2767587705987E-01
    63  6.2000000000000E-01  4.7306513006279E-01  3.1355527356906E-01
    64  6.3000000000000E-01  4.9320203799630E-01  2.9833828900353E-01
    65  6.4000000000000E-01  5.1367338332105E-01  2.8205863436741E-01
    66  6.5000000000000E-01  5.3445666073321E-01  2.6475515843947E-01
    67  6.6000000000000E-01  5.5552795542873E-01  2.4647177162309E-01
    68  6.7000000000000E-01  5.7686198011796E-01  2.2725734213522E-01