Ru    ONCVPSP-4.0.1  r_core=   2.26672   2.50936   2.26672
     44.0000     16.0000      230118    zatom,zion,pspd
     8       2   2     4   600     0    pspcod,pspxc,lmax,lloc,mmax,r2well
  5.99000000  7.00000000  0.00000000    rchrg fchrg qchrg
     2     2     2     0     0    nproj
     1     1           extension_switch
   0                         5.7201673344853E+00  1.1405127432244E+00
     1  0.0000000000000E+00  1.2504997037865E-12 -1.0058814892133E-11
     2  1.0000000000000E-02  5.4327903921411E-02 -1.1833492497628E-02
     3  2.0000000000000E-02  1.0857821110030E-01 -2.3624287016386E-02
     4  3.0000000000000E-02  1.6267344986773E-01 -3.5329729249028E-02
     5  4.0000000000000E-02  2.1653639855417E-01 -4.6907252478189E-02
     6  5.0000000000000E-02  2.7009021011927E-01 -5.8314421985333E-02
     7  6.0000000000000E-02  3.2325853633706E-01 -6.9508980189373E-02
     8  7.0000000000000E-02  3.7596565138653E-01 -8.0448892746346E-02
     9  8.0000000000000E-02  4.2813657469692E-01 -9.1092395831449E-02
    10  9.0000000000000E-02  4.7969719289486E-01 -1.0139804481234E-01
    11  1.0000000000000E-01  5.3057438069941E-01 -1.1132476450784E-01
    12  1.1000000000000E-01  5.8069612060824E-01 -1.2083190120929E-01
    13  1.2000000000000E-01  6.2999162121682E-01 -1.2987927662267E-01
    14  1.3000000000000E-01  6.7839143400925E-01 -1.3842724386885E-01
    15  1.4000000000000E-01  7.2582756845755E-01 -1.4643674565624E-01
    16  1.5000000000000E-01  7.7223360526309E-01 -1.5386937471602E-01
    17  1.6000000000000E-01  8.1754480757155E-01 -1.6068743656394E-01
    18  1.7000000000000E-01  8.6169822998978E-01 -1.6685401462551E-01
    19  1.8000000000000E-01  9.0463282523074E-01 -1.7233303773319E-01
    20  1.9000000000000E-01  9.4628954820963E-01 -1.7708934997479E-01
    21  2.0000000000000E-01  9.8661145741249E-01 -1.8108878284223E-01
    22  2.1000000000000E-01  1.0255438133559E+00 -1.8429822959956E-01
    23  2.2000000000000E-01  1.0630341739550E+00 -1.8668572175800E-01
    24  2.3000000000000E-01  1.0990324866142E+00 -1.8822050751524E-01
    25  2.4000000000000E-01  1.1334911768560E+00 -1.8887313198523E-01
    26  2.5000000000000E-01  1.1663652332995E+00 -1.8861551901437E-01
    27  2.6000000000000E-01  1.1976122888019E+00 -1.8742105435030E-01
    28  2.7000000000000E-01  1.2271926975765E+00 -1.8526466990040E-01
    29  2.8000000000000E-01  1.2550696080986E+00 -1.8212292878901E-01
    30  2.9000000000000E-01  1.2812090316156E+00 -1.7797411089580E-01
    31  3.0000000000000E-01  1.3055799060774E+00 -1.7279829853212E-01
    32  3.1000000000000E-01  1.3281541553053E+00 -1.6657746188840E-01
    33  3.2000000000000E-01  1.3489067432223E+00 -1.5929554386385E-01
    34  3.3000000000000E-01  1.3678157229714E+00 -1.5093854386943E-01
    35  3.4000000000000E-01  1.3848622807513E+00 -1.4149460017736E-01
    36  3.5000000000000E-01  1.4000307742086E+00 -1.3095407037459E-01
    37  3.6000000000000E-01  1.4133087652272E+00 -1.1930960946474E-01
    38  3.7000000000000E-01  1.4246870469666E+00 -1.0655624515204E-01
    39  3.8000000000000E-01  1.4341596650062E+00 -9.2691449832993E-02
    40  3.9000000000000E-01  1.4417239324652E+00 -7.7715208816139E-02
    41  4.0000000000000E-01  1.4473804389716E+00 -6.1630084287847E-02
    42  4.1000000000000E-01  1.4511330533722E+00 -4.4441274542589E-02
    43  4.2000000000000E-01  1.4529889200790E+00 -2.6156667999376E-02
    44  4.3000000000000E-01  1.4529584489665E+00 -6.7868915326420E-03
    45  4.4000000000000E-01  1.4510552987426E+00  1.3654647345076E-02
    46  4.5000000000000E-01  1.4472963537328E+00  3.5151724898906E-02
    47  4.6000000000000E-01  1.4417016940306E+00  5.7685272620710E-02
    48  4.7000000000000E-01  1.4342945589817E+00  8.1233356128431E-02
    49  4.8000000000000E-01  1.4251013039886E+00  1.0577116191144E-01
    50  4.9000000000000E-01  1.4141513506348E+00  1.3127099229397E-01
    51  5.0000000000000E-01  1.4014771301475E+00  1.5770226896212E-01
    52  5.1000000000000E-01  1.3871140202363E+00  1.8503154537107E-01
    53  5.2000000000000E-01  1.3711002753596E+00  2.1322252831731E-01
    54  5.3000000000000E-01  1.3534769504943E+00  2.4223610892713E-01
    55  5.4000000000000E-01  1.3342878184981E+00  2.7203040327652E-01
    56  5.5000000000000E-01  1.3135792811777E+00  3.0256080281941E-01
    57  5.6000000000000E-01  1.2914002741904E+00  3.3378003476174E-01
    58  5.7000000000000E-01  1.2678021659313E+00  3.6563823247661E-01
    59  5.8000000000000E-01  1.2428386505735E+00  3.9808301601374E-01
    60  5.9000000000000E-01  1.2165656354506E+00  4.3105958271122E-01
    61  6.0000000000000E-01  1.1890411229886E+00  4.6451080787295E-01
    62  6.1000000000000E-01  1.1603250874151E+00  4.9837735542879E-01
    63  6.2000000000000E-01  1.1304793464901E+00  5.3259779844769E-01
    64  6.3000000000000E-01  1.0995674285230E+00  5.6710874932706E-01
    65  6.4000000000000E-01  1.0676544349578E+00  6.0184499943435E-01
    66  6.5000000000000E-01  1.0348068988251E+00  6.3673966792985E-01
    67  6.6000000000000E-01  1.0010926393776E+00  6.7172435945241E-01
    68  6.7000000000000E-01  9.6658061324020E-01  7.0672933030429E-01
    69  6.8000000000000E-01  9.3134076242234E-01  7.4168366272493E-01
    70  6.9000000000000E-01  8.9544385955454E-01  7.7651544679994E-01
    71  7.0000000000000E-01  8.5896135072337E-01  8.1115196950747E-01
    72  7.1000000000000E-01  8.2196519629303E-01  8.4551991036299E-01
    73  7.2000000000000E-01  7.8452771011215E-01  8.7954554308316E-01
    74  7.3000000000000E-01  7.4672139751521E-01  9.1315494265103E-01
    75  7.4000000000000E-01  7.0861879253671E-01  9.4627419712897E-01
    76  7.5000000000000E-01  6.7029229476447E-01  9.7882962353154E-01
    77  7.6000000000000E-01  6.3181400626481E-01  1.0107479870391E+00
    78  7.7000000000000E-01  5.9325556901775E-01  1.0419567228036E+00
    79  7.8000000000000E-01  5.5468800330415E-01  1.0723841595732E+00
    80  7.9000000000000E-01  5.1618154748960E-01  1.1019597443359E+00
    81  8.0000000000000E-01  4.7780549965060E-01  1.1306142671667E+00
    82  8.1000000000000E-01  4.3962806148858E-01  1.1582800854403E+00
    83  8.2000000000000E-01  4.0171618497540E-01  1.1848913465619E+00
    84  8.3000000000000E-01  3.6413542217094E-01  1.2103842083544E+00
    85  8.4000000000000E-01  3.2694977864858E-01  1.2346970562351E+00
    86  8.5000000000000E-01  2.9022157095842E-01  1.2577707163104E+00
    87  8.6000000000000E-01  2.5401128855046E-01  1.2795486635144E+00
    88  8.7000000000000E-01  2.1837746057115E-01  1.2999772239244E+00
    89  8.8000000000000E-01  1.8337652793621E-01  1.3190057703874E+00
    90  8.9000000000000E-01  1.4906272107096E-01  1.3365869106057E+00
    91  9.0000000000000E-01  1.1548794369641E-01  1.3526766668404E+00
    92  9.1000000000000E-01  8.2701663025039E-02  1.3672346464079E+00
    93  9.2000000000000E-01  5.0750806714228E-02  1.3802242021663E+00
    94  9.3000000000000E-01  1.9679666909119E-02  1.3916125822092E+00
    95  9.4000000000000E-01 -1.0470188311882E-02  1.4013710680114E+00
    96  9.5000000000000E-01 -3.9659995794387E-02  1.4094751003013E+00
    97  9.6000000000000E-01 -6.7853870193797E-02  1.4159043919640E+00
    98  9.7000000000000E-01 -9.5018868636159E-02  1.4206430273169E+00
    99  9.8000000000000E-01 -1.2112504692271E-01  1.4236795471352E+00
   100  9.9000000000000E-01 -1.4614550706935E-01  1.4250070188449E+00
   101  1.0000000000000E+00 -1.7005643599569E-01  1.4246230913446E+00
   102  1.0100000000000E+00 -1.9283713520250E-01  1.4225300339592E+00
   103  1.0200000000000E+00 -2.1447004130096E-01  1.4187347590772E+00
   104  1.0300000000000E+00 -2.3494073728212E-01  1.4132488280714E+00
   105  1.0400000000000E+00 -2.5423795444068E-01  1.4060884401513E+00
   106  1.0500000000000E+00 -2.7235356489270E-01  1.3972744038475E+00
   107  1.0600000000000E+00 -2.8928256465316E-01  1.3868320908821E+00
   108  1.0700000000000E+00 -3.0502304726506E-01  1.3747913722289E+00
   109  1.0800000000000E+00 -3.1957616799798E-01  1.3611865362260E+00
   110  1.0900000000000E+00 -3.3294609866017E-01  1.3460561886552E+00
   111  1.1000000000000E+00 -3.4513997309379E-01  1.3294431347570E+00
   112  1.1100000000000E+00 -3.5616782344883E-01  1.3113942432087E+00
   113  1.1200000000000E+00 -3.6604250735628E-01  1.2919602921443E+00
   114  1.1300000000000E+00 -3.7477962614590E-01  1.2711957973522E+00
   115  1.1400000000000E+00 -3.8239743427846E-01  1.2491588228400E+00
   116  1.1500000000000E+00 -3.8891674018559E-01  1.2259107740094E+00
   117  1.1600000000000E+00 -3.9436079873367E-01  1.2015161737361E+00
   118  1.1700000000000E+00 -3.9875519555031E-01  1.1760424217031E+00
   119  1.1800000000000E+00 -4.0212772347305E-01  1.1495595373825E+00
   120  1.1900000000000E+00 -4.0450825140081E-01  1.1221398871131E+00
   121  1.2000000000000E+00 -4.0592858584756E-01  1.0938578957648E+00
   122  1.2100000000000E+00 -4.0642232551630E-01  1.0647897435282E+00
   123  1.2200000000000E+00 -4.0602470922866E-01  1.0350130484082E+00
   124  1.2300000000000E+00 -4.0477245756153E-01  1.0046065350437E+00
   125  1.2400000000000E+00 -4.0270360855676E-01  9.7364969051193E-01
   126  1.2500000000000E+00 -3.9985734788385E-01  9.4222240781161E-01
   127  1.2600000000000E+00 -3.9627383384755E-01  9.1040461775382E-01
   128  1.2700000000000E+00 -3.9199401764332E-01  8.7827591001827E-01
   129  1.2800000000000E+00 -3.8705945927302E-01  8.4591514416105E-01
   130  1.2900000000000E+00 -3.8151213954145E-01  8.1340005138425E-01
   131  1.3000000000000E+00 -3.7539426856073E-01  7.8080682789936E-01
   132  1.3100000000000E+00 -3.6874809119509E-01  7.4820972073499E-01
   133  1.3200000000000E+00 -3.6161568988205E-01  7.1568060685466E-01
   134  1.3300000000000E+00 -3.5403878526856E-01  6.8328856646261E-01
   135  1.3400000000000E+00 -3.4605853510114E-01  6.5109945138434E-01
   136  1.3500000000000E+00 -3.3771533180890E-01  6.1917544941463E-01
   137  1.3600000000000E+00 -3.2904859921568E-01  5.8757464552781E-01
   138  1.3700000000000E+00 -3.2009658881462E-01  5.5635058084480E-01
   139  1.3800000000000E+00 -3.1089617602494E-01  5.2555181020933E-01
   140  1.3900000000000E+00 -3.0148265661705E-01  4.9522145820720E-01
   141  1.4000000000000E+00 -2.9188954734782E-01  4.6539679099491E-01
   142  1.4100000000000E+00 -2.8214837620745E-01  4.3610873615602E-01
   143  1.4200000000000E+00 -2.7228880860900E-01  4.0738293370227E-01
   144  1.4300000000000E+00 -2.6233929682977E-01  3.7924301957305E-01
   145  1.4400000000000E+00 -2.5232731743467E-01  3.5171178266905E-01
   146  1.4500000000000E+00 -2.4227934454367E-01  3.2481105523133E-01
   147  1.4600000000000E+00 -2.3222083692836E-01  2.9856166380445E-01
   148  1.4700000000000E+00 -2.2217622406151E-01  2.7298337004364E-01
   149  1.4800000000000E+00 -2.1216889419655E-01  2.4809481622186E-01
   150  1.4900000000000E+00 -2.0222118426685E-01  2.2391347448728E-01
   151  1.5000000000000E+00 -1.9235437159945E-01  2.0045559992673E-01
   152  1.5100000000000E+00 -1.8258866743687E-01  1.7773618748770E-01
   153  1.5200000000000E+00 -1.7294318315637E-01  1.5576881820892E-01
   154  1.5300000000000E+00 -1.6343640882083E-01  1.3456752166545E-01
   155  1.5400000000000E+00 -1.5408249532508E-01  1.1413208314998E-01
   156  1.5500000000000E+00 -1.4491351582914E-01  9.4535846890676E-02
   157  1.5600000000000E+00 -1.3594078512661E-01  7.5772354508634E-02
   158  1.5700000000000E+00 -1.2715770619264E-01  5.7767603520203E-02
   159  1.5800000000000E+00 -1.1858913306340E-01  4.0575107941873E-02
   160  1.5900000000000E+00 -1.1024447370295E-01  2.4189805359973E-02
   161  1.6000000000000E+00 -1.0213466221155E-01  8.6153694907978E-03
   162  1.6100000000000E+00 -9.4269233002416E-02 -6.1474496547806E-03
   163  1.6200000000000E+00 -8.6656724575059E-02 -2.0099271491402E-02
   164  1.6300000000000E+00 -7.9304668431577E-02 -3.3242179877720E-02
   165  1.6400000000000E+00 -7.2219604700091E-02 -4.5579714349693E-02
   166  1.6500000000000E+00 -6.5407099271145E-02 -5.7116857496216E-02
   167  1.6600000000000E+00 -5.8871762405493E-02 -6.7860018548276E-02
   168  1.6700000000000E+00 -5.2617268773443E-02 -7.7817013244710E-02
   169  1.6800000000000E+00 -4.6646378883204E-02 -8.6997040046441E-02
   170  1.6900000000000E+00 -4.0960961853440E-02 -9.5410652778302E-02
   171  1.7000000000000E+00 -3.5562019482981E-02 -1.0306972978456E-01
   172  1.7100000000000E+00 -3.0449711568361E-02 -1.0998743969158E-01
   173  1.7200000000000E+00 -2.5623382417734E-02 -1.1617820387764E-01
   174  1.7300000000000E+00 -2.1081588507474E-02 -1.2165765575717E-01
   175  1.7400000000000E+00 -1.6822127225726E-02 -1.2644259699290E-01
   176  1.7500000000000E+00 -1.2842066645070E-02 -1.3055095075634E-01
   177  1.7600000000000E+00 -9.1377762644954E-03 -1.3400171216310E-01
   178  1.7700000000000E+00 -5.7049586589514E-03 -1.3681489601579E-01
   179  1.7800000000000E+00 -2.5386819728811E-03 -1.3901148199328E-01
   180  1.7900000000000E+00  3.6658680760321E-04 -1.4061335743063E-01
   181  1.8000000000000E+00  3.0169478709249E-03 -1.4164325783983E-01
   182  1.8100000000000E+00  5.4190339532252E-03 -1.4212470532621E-01
   183  1.8200000000000E+00  7.5799751385991E-03 -1.4208194506093E-01
   184  1.8300000000000E+00  9.5073631578071E-03 -1.4153987997413E-01
   185  1.8400000000000E+00  1.1209215258126E-02 -1.4052400383791E-01
   186  1.8500000000000E+00  1.2693937718137E-02 -1.3906033291231E-01
   187  1.8600000000000E+00  1.3970289082206E-02 -1.3717533633099E-01
   188  1.8700000000000E+00  1.5047343190188E-02 -1.3489586540657E-01
   189  1.8800000000000E+00  1.5934452079068E-02 -1.3224908203981E-01
   190  1.8900000000000E+00  1.6641208832654E-02 -1.2926238641583E-01
   191  1.9000000000000E+00  1.7177410457251E-02 -1.2596334417712E-01
   192  1.9100000000000E+00  1.7553020860575E-02 -1.2237961326198E-01
   193  1.9200000000000E+00  1.7778134011443E-02 -1.1853887059877E-01
   194  1.9300000000000E+00  1.7862937357755E-02 -1.1446873884753E-01
   195  1.9400000000000E+00  1.7817675579960E-02 -1.1019671338061E-01
   196  1.9500000000000E+00  1.7652614756764E-02 -1.0575008969385E-01
   197  1.9600000000000E+00  1.7378007019188E-02 -1.0115589143919E-01
   198  1.9700000000000E+00  1.7004055768351E-02 -9.6440799268504E-02
   199  1.9800000000000E+00  1.6540881531267E-02 -9.1631080676853E-02
   200  1.9900000000000E+00  1.5998488527846E-02 -8.6752521031136E-02
   201  2.0000000000000E+00  1.5386732020916E-02 -8.1830355967617E-02
   202  2.0100000000000E+00  1.4715286519543E-02 -7.6889205338627E-02
   203  2.0200000000000E+00  1.3993614904174E-02 -7.1953008885058E-02
   204  2.0300000000000E+00  1.3230938540307E-02 -6.7044963807300E-02
   205  2.0400000000000E+00  1.2436208445258E-02 -6.2187464402532E-02
   206  2.0500000000000E+00  1.1618077570312E-02 -5.7402043931212E-02
   207  2.0600000000000E+00  1.0784874258196E-02 -5.2709318870019E-02
   208  2.0700000000000E+00  9.9445769331684E-03 -4.8128935702511E-02
   209  2.0800000000000E+00  9.1047900781839E-03 -4.3679520392016E-02
   210  2.0900000000000E+00  8.2727215509531E-03 -3.9378630674960E-02
   211  2.1000000000000E+00  7.4551612872892E-03 -3.5242711304622E-02
   212  2.1100000000000E+00  6.6584614638292E-03 -3.1287052484194E-02
   213  2.1200000000000E+00  5.8885182243935E-03 -2.7525751874502E-02
   214  2.1300000000000E+00  5.1507523822746E-03 -2.3971668972390E-02
   215  2.1400000000000E+00  4.4501035455506E-03 -2.0636433256270E-02
   216  2.1500000000000E+00  3.7910005918307E-03 -1.7530352026014E-02
   217  2.1600000000000E+00  3.1772140697743E-03 -1.4661786202853E-02
   218  2.1700000000000E+00  2.6118003294551E-03 -1.2036914269711E-02
   219  2.1800000000000E+00  2.0977392611450E-03 -9.6625373318267E-03
   220  2.1900000000000E+00  1.6375468883146E-03 -7.5444436910353E-03
   221  2.2000000000000E+00  1.2331203126871E-03 -5.6867544883980E-03
   222  2.2100000000000E+00  8.8578797443081E-04 -4.0921419287223E-03
   223  2.2200000000000E+00  5.9630024695932E-04 -2.7617927040757E-03
   224  2.2300000000000E+00  3.6490619844427E-04 -1.6957742542645E-03
   225  2.2400000000000E+00  1.9095456296448E-04 -8.9111918561624E-04
   226  2.2500000000000E+00  7.3288159985882E-05 -3.4371868759881E-04
   227  2.2600000000000E+00  1.3911512699301E-05 -6.5668069073809E-05
   228  2.2700000000000E+00 -2.0496702855722E-06  9.7054607744733E-06
   229  2.2800000000000E+00 -1.1063076531071E-07  5.2583276908729E-07
   230  2.29  0. -0.
   231  2.30 -0.  0.
   232  2.31 -0.  0.
   233  2.32 -0.  0.
   234  2.33  0.  0.
   235  2.34  0.  0.
   236  2.35  0.  0.
   237  2.36  0.  0.
   238  2.37  0.  0.
   239  2.38  0.  0.
   240  2.39  0.  0.
   241  2.40  0.  0.
   242  2.41  0.  0.
   243  2.42  0.  0.
   244  2.43  0.  0.
   245  2.44  0.  0.
   246  2.45  0.  0.
   247  2.46  0.  0.
   248  2.47  0.  0.
   249  2.48  0.  0.
   250  2.49  0.  0.
   251  2.50  0.  0.
   252  2.51  0.  0.
   253  2.52  0.  0.
   254  2.53  0.  0.
   255  2.54  0.  0.
   256  2.55  0.  0.
   257  2.56  0.  0.
   258  2.57  0.  0.
   259  2.58  0.  0.
   260  2.59  0.  0.
   261  2.60  0.  0.
   262  2.61  0.  0.
   263  2.62  0.  0.
   264  2.63  0.  0.
   265  2.64  0.  0.
   266  2.65  0.  0.
   267  2.66  0.  0.
   268  2.67  0.  0.
   269  2.68  0.  0.
   270  2.69  0.  0.
   271  2.70  0.  0.
   272  2.71  0.  0.
   273  2.72  0.  0.
   274  2.73  0.  0.
   275  2.74  0.  0.
   276  2.75  0.  0.
   277  2.76  0.  0.
   278  2.77  0.  0.
   279  2.78  0.  0.
   280  2.79  0.  0.
   281  2.80  0.  0.
   282  2.81  0.  0.
   283  2.82  0.  0.
   284  2.83  0.  0.
   285  2.84  0.  0.
   286  2.85  0.  0.
   287  2.86  0.  0.
   288  2.87  0.  0.
   289  2.88  0.  0.
   290  2.89  0.  0.
   291  2.90  0.  0.
   292  2.91  0.  0.
   293  2.92  0.  0.
   294  2.93  0.  0.
   295  2.94  0.  0.
   296  2.95  0.  0.
   297  2.96  0.  0.
   298  2.97  0.  0.
   299  2.98  0.  0.
   300  2.99  0.  0.
   301  3.00  0.  0.
   302  3.01  0.  0.
   303  3.02  0.  0.
   304  3.03  0.  0.
   305  3.04  0.  0.
   306  3.05  0.  0.
   307  3.06  0.  0.
   308  3.07  0.  0.
   309  3.08  0.  0.
   310  3.09  0.  0.
   311  3.10  0.  0.
   312  3.11  0.  0.
   313  3.12  0.  0.
   314  3.13  0.  0.
   315  3.14  0.  0.
   316  3.15  0.  0.
   317  3.16  0.  0.
   318  3.17  0.  0.
   319  3.18  0.  0.
   320  3.19  0.  0.
   321  3.20  0.  0.
   322  3.21  0.  0.
   323  3.22  0.  0.
   324  3.23  0.  0.
   325  3.24  0.  0.
   326  3.25  0.  0.
   327  3.26  0.  0.
   328  3.27  0.  0.
   329  3.28  0.  0.
   330  3.29  0.  0.
   331  3.30  0.  0.
   332  3.31  0.  0.
   333  3.32  0.  0.
   334  3.33  0.  0.
   335  3.34  0.  0.
   336  3.35  0.  0.
   337  3.36  0.  0.
   338  3.37  0.  0.
   339  3.38  0.  0.
   340  3.39  0.  0.
   341  3.40  0.  0.
   342  3.41  0.  0.
   343  3.42  0.  0.
   344  3.43  0.  0.
   345  3.44  0.  0.
   346  3.45  0.  0.
   347  3.46  0.  0.
   348  3.47  0.  0.
   349  3.48  0.  0.
   350  3.49  0.  0.
   351  3.50  0.  0.
   352  3.51  0.  0.
   353  3.52  0.  0.
   354  3.53  0.  0.
   355  3.54  0.  0.
   356  3.55  0.  0.
   357  3.56  0.  0.
   358  3.57  0.  0.
   359  3.58  0.  0.
   360  3.59  0.  0.
   361  3.60  0.  0.
   362  3.61  0.  0.
   363  3.62  0.  0.
   364  3.63  0.  0.
   365  3.64  0.  0.
   366  3.65  0.  0.
   367  3.66  0.  0.
   368  3.67  0.  0.
   369  3.68  0.  0.
   370  3.69  0.  0.
   371  3.70  0.  0.
   372  3.71  0.  0.
   373  3.72  0.  0.
   374  3.73  0.  0.
   375  3.74  0.  0.
   376  3.75  0.  0.
   377  3.76  0.  0.
   378  3.77  0.  0.
   379  3.78  0.  0.
   380  3.79  0.  0.
   381  3.80  0.  0.
   382  3.81  0.  0.
   383  3.82  0.  0.
   384  3.83  0.  0.
   385  3.84  0.  0.
   386  3.85  0.  0.
   387  3.86  0.  0.
   388  3.87  0.  0.
   389  3.88  0.  0.
   390  3.89  0.  0.
   391  3.90  0.  0.
   392  3.91  0.  0.
   393  3.92  0.  0.
   394  3.93  0.  0.
   395  3.94  0.  0.
   396  3.95  0.  0.
   397  3.96  0.  0.
   398  3.97  0.  0.
   399  3.98  0.  0.
   400  3.99  0.  0.
   401  4.00  0.  0.
   402  4.01  0.  0.
   403  4.02  0.  0.
   404  4.03  0.  0.
   405  4.04  0.  0.
   406  4.05  0.  0.
   407  4.06  0.  0.
   408  4.07  0.  0.
   409  4.08  0.  0.
   410  4.09  0.  0.
   411  4.10  0.  0.
   412  4.11  0.  0.
   413  4.12  0.  0.
   414  4.13  0.  0.
   415  4.14  0.  0.
   416  4.15  0.  0.
   417  4.16  0.  0.
   418  4.17  0.  0.
   419  4.18  0.  0.
   420  4.19  0.  0.
   421  4.20  0.  0.
   422  4.21  0.  0.
   423  4.22  0.  0.
   424  4.23  0.  0.
   425  4.24  0.  0.
   426  4.25  0.  0.
   427  4.26  0.  0.
   428  4.27  0.  0.
   429  4.28  0.  0.
   430  4.29  0.  0.
   431  4.30  0.  0.
   432  4.31  0.  0.
   433  4.32  0.  0.
   434  4.33  0.  0.
   435  4.34  0.  0.
   436  4.35  0.  0.
   437  4.36  0.  0.
   438  4.37  0.  0.
   439  4.38  0.  0.
   440  4.39  0.  0.
   441  4.40  0.  0.
   442  4.41  0.  0.
   443  4.42  0.  0.
   444  4.43  0.  0.
   445  4.44  0.  0.
   446  4.45  0.  0.
   447  4.46  0.  0.
   448  4.47  0.  0.
   449  4.48  0.  0.
   450  4.49  0.  0.
   451  4.50  0.  0.
   452  4.51  0.  0.
   453  4.52  0.  0.
   454  4.53  0.  0.
   455  4.54  0.  0.
   456  4.55  0.  0.
   457  4.56  0.  0.
   458  4.57  0.  0.
   459  4.58  0.  0.
   460  4.59  0.  0.
   461  4.60  0.  0.
   462  4.61  0.  0.
   463  4.62  0.  0.
   464  4.63  0.  0.
   465  4.64  0.  0.
   466  4.65  0.  0.
   467  4.66  0.  0.
   468  4.67  0.  0.
   469  4.68  0.  0.
   470  4.69  0.  0.
   471  4.70  0.  0.
   472  4.71  0.  0.
   473  4.72  0.  0.
   474  4.73  0.  0.
   475  4.74  0.  0.
   476  4.75  0.  0.
   477  4.76  0.  0.
   478  4.77  0.  0.
   479  4.78  0.  0.
   480  4.79  0.  0.
   481  4.80  0.  0.
   482  4.81  0.  0.
   483  4.82  0.  0.
   484  4.83  0.  0.
   485  4.84  0.  0.
   486  4.85  0.  0.
   487  4.86  0.  0.
   488  4.87  0.  0.
   489  4.88  0.  0.
   490  4.89  0.  0.
   491  4.90  0.  0.
   492  4.91  0.  0.
   493  4.92  0.  0.
   494  4.93  0.  0.
   495  4.94  0.  0.
   496  4.95  0.  0.
   497  4.96  0.  0.
   498  4.97  0.  0.
   499  4.98  0.  0.
   500  4.99  0.  0.
   501  5.00  0.  0.
   502  5.01  0.  0.
   503  5.02  0.  0.
   504  5.03  0.  0.
   505  5.04  0.  0.
   506  5.05  0.  0.
   507  5.06  0.  0.
   508  5.07  0.  0.
   509  5.08  0.  0.
   510  5.09  0.  0.
   511  5.10  0.  0.
   512  5.11  0.  0.
   513  5.12  0.  0.
   514  5.13  0.  0.
   515  5.14  0.  0.
   516  5.15  0.  0.
   517  5.16  0.  0.
   518  5.17  0.  0.
   519  5.18  0.  0.
   520  5.19  0.  0.
   521  5.20  0.  0.
   522  5.21  0.  0.
   523  5.22  0.  0.
   524  5.23  0.  0.
   525  5.24  0.  0.
   526  5.25  0.  0.
   527  5.26  0.  0.
   528  5.27  0.  0.
   529  5.28  0.  0.
   530  5.29  0.  0.
   531  5.30  0.  0.
   532  5.31  0.  0.
   533  5.32  0.  0.
   534  5.33  0.  0.
   535  5.34  0.  0.
   536  5.35  0.  0.
   537  5.36  0.  0.
   538  5.37  0.  0.
   539  5.38  0.  0.
   540  5.39  0.  0.
   541  5.40  0.  0.
   542  5.41  0.  0.
   543  5.42  0.  0.
   544  5.43  0.  0.
   545  5.44  0.  0.
   546  5.45  0.  0.
   547  5.46  0.  0.
   548  5.47  0.  0.
   549  5.48  0.  0.
   550  5.49  0.  0.
   551  5.50  0.  0.
   552  5.51  0.  0.
   553  5.52  0.  0.
   554  5.53  0.  0.
   555  5.54  0.  0.
   556  5.55  0.  0.
   557  5.56  0.  0.
   558  5.57  0.  0.
   559  5.58  0.  0.
   560  5.59  0.  0.
   561  5.60  0.  0.
   562  5.61  0.  0.
   563  5.62  0.  0.
   564  5.63  0.  0.
   565  5.64  0.  0.
   566  5.65  0.  0.
   567  5.66  0.  0.
   568  5.67  0.  0.
   569  5.68  0.  0.
   570  5.69  0.  0.
   571  5.70  0.  0.
   572  5.71  0.  0.
   573  5.72  0.  0.
   574  5.73  0.  0.
   575  5.74  0.  0.
   576  5.75  0.  0.
   577  5.76  0.  0.
   578  5.77  0.  0.
   579  5.78  0.  0.
   580  5.79  0.  0.
   581  5.80  0.  0.
   582  5.81  0.  0.
   583  5.82  0.  0.
   584  5.83  0.  0.
   585  5.84  0.  0.
   586  5.85  0.  0.
   587  5.86  0.  0.
   588  5.87  0.  0.
   589  5.88  0.  0.
   590  5.89  0.  0.
   591  5.90  0.  0.
   592  5.91  0.  0.
   593  5.92  0.  0.
   594  5.93  0.  0.
   595  5.94  0.  0.
   596  5.95  0.  0.
   597  5.96  0.  0.
   598  5.97  0.  0.
   599  5.98  0.  0.
   600  5.99  0.  0.
   1                        -2.1012388959302E+02  1.6145386909220E+00
     1  0.0000000000000E+00  2.7315004424988E-10 -9.4340030579176E-11
     2  1.0000000000000E-02  1.6691336818358E-03  1.8504652638953E-04
     3  2.0000000000000E-02  6.6689637815547E-03  7.4133797464267E-04
     4  3.0000000000000E-02  1.4976809887910E-02  1.6723209258193E-03
     5  4.0000000000000E-02  2.6554979261194E-02  2.9837096432636E-03
     6  5.0000000000000E-02  4.1350928258053E-02  4.6834411855185E-03
     7  6.0000000000000E-02  5.9297487340328E-02  6.7816129051618E-03
     8  7.0000000000000E-02  8.0313148688136E-02  9.2904026716717E-03
     9  8.0000000000000E-02  1.0430241516425E-01  1.2223972250771E-02
    10  9.0000000000000E-02  1.3115620911039E-01  1.5598354363997E-02
    11  1.0000000000000E-01  1.6075233919603E-01  1.9431324041305E-02
    12  1.1000000000000E-01  1.9295602328863E-01  2.3742254965210E-02
    13  1.2000000000000E-01  2.2762046507127E-01  2.8551961587575E-02
    14  1.3000000000000E-01  2.6458748190144E-01  3.3882527878303E-02
    15  1.4000000000000E-01  3.0368818118358E-01  3.9757123639385E-02
    16  1.5000000000000E-01  3.4474368231912E-01  4.6199809387120E-02
    17  1.6000000000000E-01  3.8756588110222E-01  5.3235330869591E-02
    18  1.7000000000000E-01  4.3195825324779E-01  6.0888904345552E-02
    19  1.8000000000000E-01  4.7771669357197E-01  6.9185993804032E-02
    20  1.9000000000000E-01  5.2463038719386E-01  7.8152081351395E-02
    21  2.0000000000000E-01  5.7248270899291E-01  8.7812432033885E-02
    22  2.1000000000000E-01  6.2105214743821E-01  9.8191854398330E-02
    23  2.2000000000000E-01  6.7011324880527E-01  1.0931445812222E-01
    24  2.3000000000000E-01  7.1943757771341E-01  1.2120341006577E-01
    25  2.4000000000000E-01  7.6879468985156E-01  1.3388069011358E-01
    26  2.5000000000000E-01  8.1795311271437E-01  1.4736684818151E-01
    27  2.6000000000000E-01  8.6668133014223E-01  1.6168076376541E-01
    28  2.7000000000000E-01  9.1474876644946E-01  1.7683940940266E-01
    29  2.8000000000000E-01  9.6192676593440E-01  1.9285761940481E-01
    30  2.9000000000000E-01  1.0079895635923E+00  2.0974786520026E-01
    31  3.0000000000000E-01  1.0527152428984E+00  2.2752003859972E-01
    32  3.1000000000000E-01  1.0958866765917E+00  2.4618124426480E-01
    33  3.2000000000000E-01  1.1372924464727E+00  2.6573560262061E-01
    34  3.3000000000000E-01  1.1767277383260E+00  2.8618406440863E-01
    35  3.4000000000000E-01  1.2139952081951E+00  3.0752423802428E-01
    36  3.5000000000000E-01  1.2489058163683E+00  3.2975023072735E-01
    37  3.6000000000000E-01  1.2812796255817E+00  3.5285250475066E-01
    38  3.7000000000000E-01  1.3109465601072E+00  3.7681774926528E-01
    39  3.8000000000000E-01  1.3377471225703E+00  4.0162876908800E-01
    40  3.9000000000000E-01  1.3615330655310E+00  4.2726439094060E-01
    41  4.0000000000000E-01  1.3821680150623E+00  4.5369938798928E-01
    42  4.1000000000000E-01  1.3995280437752E+00  4.8090442330879E-01
    43  4.2000000000000E-01  1.4135021909604E+00  5.0884601282751E-01
    44  4.3000000000000E-01  1.4239929277506E+00  5.3748650821998E-01
    45  4.4000000000000E-01  1.4309165654472E+00  5.6678410012005E-01
    46  4.5000000000000E-01  1.4342036054045E+00  5.9669284193319E-01
    47  4.6000000000000E-01  1.4337990291152E+00  6.2716269443030E-01
    48  4.7000000000000E-01  1.4296625274037E+00  6.5813959120772E-01
    49  4.8000000000000E-01  1.4217686678914E+00  6.8956552500058E-01
    50  4.9000000000000E-01  1.4101070001681E+00  7.2137865473821E-01
    51  5.0000000000000E-01  1.3946820983632E+00  7.5351343313280E-01
    52  5.1000000000000E-01  1.3755135410843E+00  7.8590075449551E-01
    53  5.2000000000000E-01  1.3526358289474E+00  8.1846812237837E-01
    54  5.3000000000000E-01  1.3260982401943E+00  8.5113983654629E-01
    55  5.4000000000000E-01  1.2959646251448E+00  8.8383719869167E-01
    56  5.5000000000000E-01  1.2623131404925E+00  9.1647873621425E-01
    57  5.6000000000000E-01  1.2252359246987E+00  9.4898044330257E-01
    58  5.7000000000000E-01  1.1848387159835E+00  9.8125603846991E-01
    59  5.8000000000000E-01  1.1412404146493E+00  1.0132172376178E+00
    60  5.9000000000000E-01  1.0945725916972E+00  1.0447740416252E+00
    61  6.0000000000000E-01  1.0449789459157E+00  1.0758350373881E+00
    62  6.1000000000000E-01  9.9261471182766E-01  1.1063077111713E+00
    63  6.2000000000000E-01  9.3764602107710E-01  1.1360987730666E+00
    64  6.3000000000000E-01  8.8024922002286E-01  1.1651144913012E+00
    65  6.4000000000000E-01  8.2061014647587E-01  1.1932610350833E+00
    66  6.5000000000000E-01  7.5892336867618E-01  1.2204448246290E+00
    67  6.6000000000000E-01  6.9539138975040E-01  1.2465728869738E+00
    68  6.7000000000000E-01  6.3022382101961E-01  1.2715532161371E+00
    69  6.8000000000000E-01  5.6363652764405E-01  1.2952951361796E+00
    70  6.9000000000000E-01  4.9585075019083E-01  1.3177096656732E+00
    71  7.0000000000000E-01  4.2709220579623E-01  1.3387098820827E+00
    72  7.1000000000000E-01  3.5759017266317E-01  1.3582112845534E+00
    73  7.2000000000000E-01  2.8757656168885E-01  1.3761321535899E+00
    74  7.3000000000000E-01  2.1728497905491E-01  1.3923939061170E+00
    75  7.4000000000000E-01  1.4694978363521E-01  1.4069214444197E+00
    76  7.5000000000000E-01  7.6805143082288E-02  1.4196434974734E+00
    77  7.6000000000000E-01  7.0840924453041E-03  1.4304929531959E+00
    78  7.7000000000000E-01 -6.1982400852934E-02  1.4394071801774E+00
    79  7.8000000000000E-01 -1.3016636189064E-01  1.4463283374755E+00
    80  7.9000000000000E-01 -1.9724371923940E-01  1.4512036710993E+00
    81  8.0000000000000E-01 -2.6299519840711E-01  1.4539857958459E+00