Rh    ONCVPSP-4.0.1  r_core=   1.90848   2.35298   2.10018
     45.0000     17.0000      230118    zatom,zion,pspd
     8       2   2     4   600     0    pspcod,pspxc,lmax,lloc,mmax,r2well
  5.99000000  7.00000000  0.00000000    rchrg fchrg qchrg
     2     2     2     0     0    nproj
     1     1           extension_switch
   0                         1.1281156695266E+01  1.8827685853999E+00
     1  0.0000000000000E+00  3.6537439740414E-11 -1.2633830093201E-10
     2  1.0000000000000E-02  6.0426616881914E-02 -1.7951188324825E-02
     3  2.0000000000000E-02  1.2076246062915E-01 -3.5857797107402E-02
     4  3.0000000000000E-02  1.8091683998539E-01 -5.3675045942586E-02
     5  4.0000000000000E-02  2.4079922820992E-01 -7.1357756118326E-02
     6  5.0000000000000E-02  3.0031934722328E-01 -8.8860159977263E-02
     7  6.0000000000000E-02  3.5938725399231E-01 -1.0613572040657E-01
     8  7.0000000000000E-02  4.1791342985801E-01 -1.2313696368304E-01
     9  8.0000000000000E-02  4.7580887347290E-01 -1.3981532877416E-01
    10  9.0000000000000E-02  5.3298519796970E-01 -1.5612103603960E-01
    11  1.0000000000000E-01  5.8935473292947E-01 -1.7200297809257E-01
    12  1.1000000000000E-01  6.4483063165634E-01 -1.8740863536838E-01
    13  1.2000000000000E-01  6.9932698419717E-01 -2.0228401870916E-01
    14  1.3000000000000E-01  7.5275893646934E-01 -2.1657364101181E-01
    15  1.4000000000000E-01  8.0504281577798E-01 -2.3022051970210E-01
    16  1.5000000000000E-01  8.5609626291701E-01 -2.4316621149373E-01
    17  1.6000000000000E-01  9.0583837095632E-01 -2.5535088057003E-01
    18  1.7000000000000E-01  9.5418983072148E-01 -2.6671340098942E-01
    19  1.8000000000000E-01  1.0010730828729E+00 -2.7719149376711E-01
    20  1.9000000000000E-01  1.0464124763903E+00 -2.8672189872782E-01
    21  2.0000000000000E-01  1.0901344331643E+00 -2.9524058085955E-01
    22  2.1000000000000E-01  1.1321676182939E+00 -3.0268297053081E-01
    23  2.2000000000000E-01  1.1724431155862E+00 -3.0898423656557E-01
    24  2.3000000000000E-01  1.2108946076506E+00 -3.1407959080558E-01
    25  2.4000000000000E-01  1.2474585598814E+00 -3.1790462243036E-01
    26  2.5000000000000E-01  1.2820744075278E+00 -3.2039565995680E-01
    27  2.6000000000000E-01  1.3146847449551E+00 -3.2149015850347E-01
    28  2.7000000000000E-01  1.3452355161172E+00 -3.2112710958494E-01
    29  2.8000000000000E-01  1.3736762051780E+00 -3.1924747040016E-01
    30  2.9000000000000E-01  1.3999600261462E+00 -3.1579460930088E-01
    31  3.0000000000000E-01  1.4240441103238E+00 -3.1071476387219E-01
    32  3.1000000000000E-01  1.4458896903085E+00 -3.0395750783249E-01
    33  3.2000000000000E-01  1.4654622792479E+00 -2.9547622276550E-01
    34  3.3000000000000E-01  1.4827318440002E+00 -2.8522857053511E-01
    35  3.4000000000000E-01  1.4976729708357E+00 -2.7317696210785E-01
    36  3.5000000000000E-01  1.5102650222942E+00 -2.5928901841806E-01
    37  3.6000000000000E-01  1.5204922838129E+00 -2.4353801886005E-01
    38  3.7000000000000E-01  1.5283440987457E+00 -2.2590333298037E-01
    39  3.8000000000000E-01  1.5338149904197E+00 -2.0637083097281E-01
    40  3.9000000000000E-01  1.5369047699044E+00 -1.8493326864927E-01
    41  4.0000000000000E-01  1.5376186282194E+00 -1.6159064267131E-01
    42  4.1000000000000E-01  1.5359672117608E+00 -1.3635051198010E-01
    43  4.2000000000000E-01  1.5319666798017E+00 -1.0922828155510E-01
    44  4.3000000000000E-01  1.5256387430006E+00 -8.0247444864150E-02
    45  4.4000000000000E-01  1.5170106819493E+00 -4.9439781637049E-02
    46  4.5000000000000E-01  1.5061153448928E+00 -1.6845507900274E-02
    47  4.6000000000000E-01  1.4929911238724E+00  1.7486624450429E-02
    48  4.7000000000000E-01  1.4776819086633E+00  5.3499280893666E-02
    49  4.8000000000000E-01  1.4602370180142E+00  9.1126552298153E-02
    50  4.9000000000000E-01  1.4407111078322E+00  1.3029401924498E-01
    51  5.0000000000000E-01  1.4191640561064E+00  1.7091887374778E-01
    52  5.1000000000000E-01  1.3956608245115E+00  2.1291009900213E-01
    53  5.2000000000000E-01  1.3702712967892E+00  2.5616870732295E-01
    54  5.3000000000000E-01  1.3430700941623E+00  3.0058803594744E-01
    55  5.4000000000000E-01  1.3141363681955E+00  3.4605409989497E-01
    56  5.5000000000000E-01  1.2835535716759E+00  3.9244600059079E-01
    57  5.6000000000000E-01  1.2514092082422E+00  4.3963638847947E-01
    58  5.7000000000000E-01  1.2177945616476E+00  4.8749197738323E-01
    59  5.8000000000000E-01  1.1828044056903E+00  5.3587410790289E-01
    60  5.9000000000000E-01  1.1465366959917E+00  5.8463935672036E-01
    61  6.0000000000000E-01  1.1090922449383E+00  6.3364018824466E-01
    62  6.1000000000000E-01  1.0705743812358E+00  6.8272564465325E-01
    63  6.2000000000000E-01  1.0310885956423E+00  7.3174207001998E-01
    64  6.3000000000000E-01  9.9074217456014E-01  7.8053386389388E-01
    65  6.4000000000000E-01  9.4964382326356E-01  8.2894425940259E-01
    66  6.5000000000000E-01  9.0790328062939E-01  8.7681612070249E-01
    67  6.6000000000000E-01  8.6563092731005E-01  9.2399275438739E-01
    68  6.7000000000000E-01  8.2293738935189E-01  9.7031872930031E-01
    69  6.8000000000000E-01  7.7993313930858E-01  1.0156406990701E+00
    70  6.9000000000000E-01  7.3672809693343E-01  1.0598082216165E+00
    71  7.0000000000000E-01  6.9343123155396E-01  1.1026745698353E+00
    72  7.1000000000000E-01  6.5015016823724E-01  1.1440975276881E+00
    73  7.2000000000000E-01  6.0699079984549E-01  1.1839401659777E+00
    74  7.3000000000000E-01  5.6405690705881E-01  1.2220715921925E+00
    75  7.4000000000000E-01  5.2144978840536E-01  1.2583676689449E+00
    76  7.5000000000000E-01  4.7926790228988E-01  1.2927116957109E+00
    77  7.6000000000000E-01  4.3760652294992E-01  1.3249950487976E+00
    78  7.7000000000000E-01  3.9655741219567E-01  1.3551177747188E+00
    79  7.8000000000000E-01  3.5620850870528E-01  1.3829891324442E+00
    80  7.9000000000000E-01  3.1664363655369E-01  1.4085280802980E+00
    81  8.0000000000000E-01  2.7794223455072E-01  1.4316637036213E+00
    82  8.1000000000000E-01  2.4017910785353E-01  1.4523355796642E+00
    83  8.2000000000000E-01  2.0342420320243E-01  1.4704940765499E+00
    84  8.3000000000000E-01  1.6774240900669E-01  1.4861005835296E+00
    85  8.4000000000000E-01  1.3319338138123E-01  1.4991276701426E+00
    86  8.5000000000000E-01  9.9831397106060E-02  1.5095591722843E+00
    87  8.6000000000000E-01  6.7705234349704E-02  1.5173902035797E+00
    88  8.7000000000000E-01  3.6858081866785E-02  1.5226270908442E+00
    89  8.8000000000000E-01  7.3274772494051E-03  1.5252872327946E+00
    90  8.9000000000000E-01 -2.0854725317028E-02  1.5253988815356E+00
    91  9.0000000000000E-01 -4.7662357469053E-02  1.5230008467004E+00
    92  9.1000000000000E-01 -7.3074909049818E-02  1.5181421224556E+00
    93  9.2000000000000E-01 -9.7077470379772E-02  1.5108814378898E+00
    94  9.3000000000000E-01 -1.1966064444334E-01  1.5012867315979E+00
    95  9.4000000000000E-01 -1.4082042912923E-01  1.4894345515335E+00
    96  9.5000000000000E-01 -1.6055806976326E-01  1.4754093814431E+00
    97  9.6000000000000E-01 -1.7887988226774E-01  1.4593028954054E+00
    98  9.7000000000000E-01 -1.9579704736944E-01  1.4412131421864E+00
    99  9.8000000000000E-01 -2.1132537635907E-01  1.4212436612769E+00
   100  9.9000000000000E-01 -2.2548504897981E-01  1.3995025326142E+00
   101  1.0000000000000E+00 -2.3830032408907E-01  1.3761013620934E+00
   102  1.0100000000000E+00 -2.4979922379861E-01  1.3511542050601E+00
   103  1.0200000000000E+00 -2.6001319185167E-01  1.3247764300339E+00
   104  1.0300000000000E+00 -2.6897672704404E-01  1.2970835249555E+00
   105  1.0400000000000E+00 -2.7672699253766E-01  1.2681898482689E+00
   106  1.0500000000000E+00 -2.8330340195259E-01  1.2382073271614E+00
   107  1.0600000000000E+00 -2.8874718315519E-01  1.2072441052731E+00
   108  1.0700000000000E+00 -2.9310092068841E-01  1.1754031421736E+00
   109  1.0800000000000E+00 -2.9640807781464E-01  1.1427807668781E+00
   110  1.0900000000000E+00 -2.9871249899516E-01  1.1094651862294E+00
   111  1.1000000000000E+00 -3.0005789527448E-01  1.0755349628109E+00
   112  1.1100000000000E+00 -3.0048735580253E-01  1.0410578434225E+00
   113  1.1200000000000E+00 -3.0004350704710E-01  1.0060951412876E+00
   114  1.1300000000000E+00 -2.9876903160790E-01  9.7070784710477E-01
   115  1.1400000000000E+00 -2.9670668162402E-01  9.3495726718239E-01
   116  1.1500000000000E+00 -2.9389922226193E-01  8.9890495837537E-01
   117  1.1600000000000E+00 -2.9038937761429E-01  8.6261266612840E-01
   118  1.1700000000000E+00 -2.8621977914981E-01  8.2614227027587E-01
   119  1.1800000000000E+00 -2.8143291614867E-01  7.8955573545210E-01
   120  1.1900000000000E+00 -2.7607108763069E-01  7.5291506389893E-01
   121  1.2000000000000E+00 -2.7017635528772E-01  7.1628224855235E-01
   122  1.2100000000000E+00 -2.6379049693802E-01  6.7971922434083E-01
   123  1.2200000000000E+00 -2.5695496003593E-01  6.4328781570837E-01
   124  1.2300000000000E+00 -2.4971081479428E-01  6.0704967848663E-01
   125  1.2400000000000E+00 -2.4209870650951E-01  5.7106623437982E-01
   126  1.2500000000000E+00 -2.3415880671853E-01  5.3539859648608E-01
   127  1.2600000000000E+00 -2.2593076286560E-01  5.0010748447947E-01
   128  1.2700000000000E+00 -2.1745364620820E-01  4.6525312827556E-01
   129  1.2800000000000E+00 -2.0876589775132E-01  4.3089515924126E-01
   130  1.2900000000000E+00 -1.9990527206230E-01  3.9709248825507E-01
   131  1.3000000000000E+00 -1.9090877888557E-01  3.6390317018321E-01
   132  1.3100000000000E+00 -1.8181262254618E-01  3.3138425460758E-01
   133  1.3200000000000E+00 -1.7265213920307E-01  2.9959162291794E-01
   134  1.3300000000000E+00 -1.6346173208473E-01  2.6857981215996E-01
   135  1.3400000000000E+00 -1.5427480491259E-01  2.3840182630944E-01
   136  1.3500000000000E+00 -1.4512369378804E-01  2.0910893591812E-01
   137  1.3600000000000E+00 -1.3603959788815E-01  1.8075046734389E-01
   138  1.3700000000000E+00 -1.2705250937943E-01  1.5337358302826E-01
   139  1.3800000000000E+00 -1.1819114302330E-01  1.2702305453896E-01
   140  1.3900000000000E+00 -1.0948286599965E-01  1.0174103029948E-01
   141  1.4000000000000E+00 -1.0095362852866E-01  7.7566800144715E-02
   142  1.4100000000000E+00 -9.2627895913819E-02  5.4536559013496E-02
   143  1.4200000000000E+00 -8.4528582666256E-02  3.2683172242436E-02
   144  1.4300000000000E+00 -7.6676989399858E-02  1.2035945049635E-02
   145  1.4400000000000E+00 -6.9092743207187E-02 -7.3796011103297E-03
   146  1.4500000000000E+00 -6.1793742238367E-02 -2.5541942577150E-02
   147  1.4600000000000E+00 -5.4796105208033E-02 -4.2433755130209E-02
   148  1.4700000000000E+00 -4.8114126549143E-02 -5.8042100483485E-02
   149  1.4800000000000E+00 -4.1760237916810E-02 -7.2358594905051E-02
   150  1.4900000000000E+00 -3.5744976720196E-02 -8.5379557311355E-02
   151  1.5000000000000E+00 -3.0076962326240E-02 -9.7106134295637E-02
   152  1.5100000000000E+00 -2.4762880536107E-02 -1.0754439969041E-01
   153  1.5200000000000E+00 -1.9807476880101E-02 -1.1670542645293E-01
   154  1.5300000000000E+00 -1.5213605317608E-02 -1.2460512575083E-01
   155  1.5400000000000E+00 -1.0981498119121E-02 -1.3126753040413E-01
   156  1.5500000000000E+00 -7.1148497290311E-03 -1.3669805043036E-01
   157  1.5600000000000E+00 -3.6219319138620E-03 -1.4087891461729E-01
   158  1.5700000000000E+00 -4.7411891118356E-04 -1.4395194561162E-01
   159  1.5800000000000E+00  2.3252145238291E-03 -1.4591427127606E-01
   160  1.5900000000000E+00  4.7857916219982E-03 -1.4681799671347E-01
   161  1.6000000000000E+00  6.9172191664646E-03 -1.4671187493010E-01
   162  1.6100000000000E+00  8.7309155431315E-03 -1.4564997950370E-01
   163  1.6200000000000E+00  1.0239732471051E-02 -1.4369018229681E-01
   164  1.6300000000000E+00  1.1457869430120E-02 -1.4089393497283E-01
   165  1.6400000000000E+00  1.2400759791770E-02 -1.3732593334237E-01
   166  1.6500000000000E+00  1.3084948475274E-02 -1.3305375144366E-01
   167  1.6600000000000E+00  1.3527961823026E-02 -1.2814744756069E-01
   168  1.6700000000000E+00  1.3748170469910E-02 -1.2267914467910E-01
   169  1.6800000000000E+00  1.3764646063205E-02 -1.1672258817960E-01
   170  1.6900000000000E+00  1.3597012763494E-02 -1.1035268384274E-01
   171  1.7000000000000E+00  1.3265294523557E-02 -1.0364501948701E-01
   172  1.7100000000000E+00  1.2789759200345E-02 -9.6675373780698E-02
   173  1.7200000000000E+00  1.2190760604087E-02 -8.9519215954537E-02
   174  1.7300000000000E+00  1.1488579627861E-02 -8.2251200294481E-02
   175  1.7400000000000E+00  1.0703265629965E-02 -7.4944659410050E-02
   176  1.7500000000000E+00  9.8544792596679E-03 -6.7671100351775E-02
   177  1.7600000000000E+00  8.9613379242831E-03 -6.0499707690347E-02
   178  1.7700000000000E+00  8.0422650915902E-03 -5.3496857669678E-02
   179  1.7800000000000E+00  7.1148452495993E-03 -4.6725650162399E-02
   180  1.7900000000000E+00  6.1956793393267E-03 -4.0245436351774E-02
   181  1.8000000000000E+00  5.3002673427184E-03 -3.4111450356197E-02
   182  1.8100000000000E+00  4.4428660722489E-03 -2.8374336023754E-02
   183  1.8200000000000E+00  3.6359736400553E-03 -2.3078107327046E-02
   184  1.8300000000000E+00  2.8901549202067E-03 -1.8259472239225E-02
   185  1.8400000000000E+00  2.2158174653712E-03 -1.3955283806604E-02
   186  1.8500000000000E+00  1.6217149689008E-03 -1.0196512820104E-02
   187  1.8600000000000E+00  1.1148005117057E-03 -7.0076900361226E-03
   188  1.8700000000000E+00  7.0018593502128E-04 -4.4067755448649E-03
   189  1.8800000000000E+00  3.8123922020900E-04 -2.4058974848874E-03
   190  1.8900000000000E+00  1.5821300080485E-04 -1.0025687817386E-03
   191  1.9000000000000E+00  3.4589324570732E-05 -2.2048697880554E-04
   192  1.9100000000000E+00 -1.7615562064186E-06  1.1281033959479E-05
   193  1.9200000000000E+00  2.1177187549582E-08 -1.3525866256462E-07
   194  1.93  0. -0.
   195  1.94 -0.  0.
   196  1.95 -0.  0.
   197  1.96  0.  0.
   198  1.97  0.  0.
   199  1.98  0.  0.
   200  1.99  0.  0.
   201  2.00  0.  0.
   202  2.01  0.  0.
   203  2.02  0.  0.
   204  2.03  0.  0.
   205  2.04  0.  0.
   206  2.05  0.  0.
   207  2.06  0.  0.
   208  2.07  0.  0.
   209  2.08  0.  0.
   210  2.09  0.  0.
   211  2.10  0.  0.
   212  2.11  0.  0.
   213  2.12  0.  0.
   214  2.13  0.  0.
   215  2.14  0.  0.
   216  2.15  0.  0.
   217  2.16  0.  0.
   218  2.17  0.  0.
   219  2.18  0.  0.
   220  2.19  0.  0.
   221  2.20  0.  0.
   222  2.21  0.  0.
   223  2.22  0.  0.
   224  2.23  0.  0.
   225  2.24  0.  0.
   226  2.25  0.  0.
   227  2.26  0.  0.
   228  2.27  0.  0.
   229  2.28  0.  0.
   230  2.29  0.  0.
   231  2.30  0.  0.
   232  2.31  0.  0.
   233  2.32  0.  0.
   234  2.33  0.  0.
   235  2.34  0.  0.
   236  2.35  0.  0.
   237  2.36  0.  0.
   238  2.37  0.  0.
   239  2.38  0.  0.
   240  2.39  0.  0.
   241  2.40  0.  0.
   242  2.41  0.  0.
   243  2.42  0.  0.
   244  2.43  0.  0.
   245  2.44  0.  0.
   246  2.45  0.  0.
   247  2.46  0.  0.
   248  2.47  0.  0.
   249  2.48  0.  0.
   250  2.49  0.  0.
   251  2.50  0.  0.
   252  2.51  0.  0.
   253  2.52  0.  0.
   254  2.53  0.  0.
   255  2.54  0.  0.
   256  2.55  0.  0.
   257  2.56  0.  0.
   258  2.57  0.  0.
   259  2.58  0.  0.
   260  2.59  0.  0.
   261  2.60  0.  0.
   262  2.61  0.  0.
   263  2.62  0.  0.
   264  2.63  0.  0.
   265  2.64  0.  0.
   266  2.65  0.  0.
   267  2.66  0.  0.
   268  2.67  0.  0.
   269  2.68  0.  0.
   270  2.69  0.  0.
   271  2.70  0.  0.
   272  2.71  0.  0.
   273  2.72  0.  0.
   274  2.73  0.  0.
   275  2.74  0.  0.
   276  2.75  0.  0.
   277  2.76  0.  0.
   278  2.77  0.  0.
   279  2.78  0.  0.
   280  2.79  0.  0.
   281  2.80  0.  0.
   282  2.81  0.  0.
   283  2.82  0.  0.
   284  2.83  0.  0.
   285  2.84  0.  0.
   286  2.85  0.  0.
   287  2.86  0.  0.
   288  2.87  0.  0.
   289  2.88  0.  0.
   290  2.89  0.  0.
   291  2.90  0.  0.
   292  2.91  0.  0.
   293  2.92  0.  0.
   294  2.93  0.  0.
   295  2.94  0.  0.
   296  2.95  0.  0.
   297  2.96  0.  0.
   298  2.97  0.  0.
   299  2.98  0.  0.
   300  2.99  0.  0.
   301  3.00  0.  0.
   302  3.01  0.  0.
   303  3.02  0.  0.
   304  3.03  0.  0.
   305  3.04  0.  0.
   306  3.05  0.  0.
   307  3.06  0.  0.
   308  3.07  0.  0.
   309  3.08  0.  0.
   310  3.09  0.  0.
   311  3.10  0.  0.
   312  3.11  0.  0.
   313  3.12  0.  0.
   314  3.13  0.  0.
   315  3.14  0.  0.
   316  3.15  0.  0.
   317  3.16  0.  0.
   318  3.17  0.  0.
   319  3.18  0.  0.
   320  3.19  0.  0.
   321  3.20  0.  0.
   322  3.21  0.  0.
   323  3.22  0.  0.
   324  3.23  0.  0.
   325  3.24  0.  0.
   326  3.25  0.  0.
   327  3.26  0.  0.
   328  3.27  0.  0.
   329  3.28  0.  0.
   330  3.29  0.  0.
   331  3.30  0.  0.
   332  3.31  0.  0.
   333  3.32  0.  0.
   334  3.33  0.  0.
   335  3.34  0.  0.
   336  3.35  0.  0.
   337  3.36  0.  0.
   338  3.37  0.  0.
   339  3.38  0.  0.
   340  3.39  0.  0.
   341  3.40  0.  0.
   342  3.41  0.  0.
   343  3.42  0.  0.
   344  3.43  0.  0.
   345  3.44  0.  0.
   346  3.45  0.  0.
   347  3.46  0.  0.
   348  3.47  0.  0.
   349  3.48  0.  0.
   350  3.49  0.  0.
   351  3.50  0.  0.
   352  3.51  0.  0.
   353  3.52  0.  0.
   354  3.53  0.  0.
   355  3.54  0.  0.
   356  3.55  0.  0.
   357  3.56  0.  0.
   358  3.57  0.  0.
   359  3.58  0.  0.
   360  3.59  0.  0.
   361  3.60  0.  0.
   362  3.61  0.  0.
   363  3.62  0.  0.
   364  3.63  0.  0.
   365  3.64  0.  0.
   366  3.65  0.  0.
   367  3.66  0.  0.
   368  3.67  0.  0.
   369  3.68  0.  0.
   370  3.69  0.  0.
   371  3.70  0.  0.
   372  3.71  0.  0.
   373  3.72  0.  0.
   374  3.73  0.  0.
   375  3.74  0.  0.
   376  3.75  0.  0.
   377  3.76  0.  0.
   378  3.77  0.  0.
   379  3.78  0.  0.
   380  3.79  0.  0.
   381  3.80  0.  0.
   382  3.81  0.  0.
   383  3.82  0.  0.
   384  3.83  0.  0.
   385  3.84  0.  0.
   386  3.85  0.  0.
   387  3.86  0.  0.
   388  3.87  0.  0.
   389  3.88  0.  0.
   390  3.89  0.  0.
   391  3.90  0.  0.
   392  3.91  0.  0.
   393  3.92  0.  0.
   394  3.93  0.  0.
   395  3.94  0.  0.
   396  3.95  0.  0.
   397  3.96  0.  0.
   398  3.97  0.  0.
   399  3.98  0.  0.
   400  3.99  0.  0.
   401  4.00  0.  0.
   402  4.01  0.  0.
   403  4.02  0.  0.
   404  4.03  0.  0.
   405  4.04  0.  0.
   406  4.05  0.  0.
   407  4.06  0.  0.
   408  4.07  0.  0.
   409  4.08  0.  0.
   410  4.09  0.  0.
   411  4.10  0.  0.
   412  4.11  0.  0.
   413  4.12  0.  0.
   414  4.13  0.  0.
   415  4.14  0.  0.
   416  4.15  0.  0.
   417  4.16  0.  0.
   418  4.17  0.  0.
   419  4.18  0.  0.
   420  4.19  0.  0.
   421  4.20  0.  0.
   422  4.21  0.  0.
   423  4.22  0.  0.
   424  4.23  0.  0.
   425  4.24  0.  0.
   426  4.25  0.  0.
   427  4.26  0.  0.
   428  4.27  0.  0.
   429  4.28  0.  0.
   430  4.29  0.  0.
   431  4.30  0.  0.
   432  4.31  0.  0.
   433  4.32  0.  0.
   434  4.33  0.  0.
   435  4.34  0.  0.
   436  4.35  0.  0.
   437  4.36  0.  0.
   438  4.37  0.  0.
   439  4.38  0.  0.
   440  4.39  0.  0.
   441  4.40  0.  0.
   442  4.41  0.  0.
   443  4.42  0.  0.
   444  4.43  0.  0.
   445  4.44  0.  0.
   446  4.45  0.  0.
   447  4.46  0.  0.
   448  4.47  0.  0.
   449  4.48  0.  0.
   450  4.49  0.  0.
   451  4.50  0.  0.
   452  4.51  0.  0.
   453  4.52  0.  0.
   454  4.53  0.  0.
   455  4.54  0.  0.
   456  4.55  0.  0.
   457  4.56  0.  0.
   458  4.57  0.  0.
   459  4.58  0.  0.
   460  4.59  0.  0.
   461  4.60  0.  0.
   462  4.61  0.  0.
   463  4.62  0.  0.
   464  4.63  0.  0.
   465  4.64  0.  0.
   466  4.65  0.  0.
   467  4.66  0.  0.
   468  4.67  0.  0.
   469  4.68  0.  0.
   470  4.69  0.  0.
   471  4.70  0.  0.
   472  4.71  0.  0.
   473  4.72  0.  0.
   474  4.73  0.  0.
   475  4.74  0.  0.
   476  4.75  0.  0.
   477  4.76  0.  0.
   478  4.77  0.  0.
   479  4.78  0.  0.
   480  4.79  0.  0.
   481  4.80  0.  0.
   482  4.81  0.  0.
   483  4.82  0.  0.
   484  4.83  0.  0.
   485  4.84  0.  0.
   486  4.85  0.  0.
   487  4.86  0.  0.
   488  4.87  0.  0.
   489  4.88  0.  0.
   490  4.89  0.  0.
   491  4.90  0.  0.
   492  4.91  0.  0.
   493  4.92  0.  0.
   494  4.93  0.  0.
   495  4.94  0.  0.
   496  4.95  0.  0.
   497  4.96  0.  0.
   498  4.97  0.  0.
   499  4.98  0.  0.
   500  4.99  0.  0.
   501  5.00  0.  0.
   502  5.01  0.  0.
   503  5.02  0.  0.
   504  5.03  0.  0.
   505  5.04  0.  0.
   506  5.05  0.  0.
   507  5.06  0.  0.
   508  5.07  0.  0.
   509  5.08  0.  0.
   510  5.09  0.  0.
   511  5.10  0.  0.
   512  5.11  0.  0.
   513  5.12  0.  0.
   514  5.13  0.  0.
   515  5.14  0.  0.
   516  5.15  0.  0.
   517  5.16  0.  0.
   518  5.17  0.  0.
   519  5.18  0.  0.
   520  5.19  0.  0.
   521  5.20  0.  0.
   522  5.21  0.  0.
   523  5.22  0.  0.
   524  5.23  0.  0.
   525  5.24  0.  0.
   526  5.25  0.  0.
   527  5.26  0.  0.
   528  5.27  0.  0.
   529  5.28  0.  0.
   530  5.29  0.  0.
   531  5.30  0.  0.
   532  5.31  0.  0.
   533  5.32  0.  0.
   534  5.33  0.  0.
   535  5.34  0.  0.
   536  5.35  0.  0.
   537  5.36  0.  0.
   538  5.37  0.  0.
   539  5.38  0.  0.
   540  5.39  0.  0.
   541  5.40  0.  0.
   542  5.41  0.  0.
   543  5.42  0.  0.
   544  5.43  0.  0.
   545  5.44  0.  0.
   546  5.45  0.  0.
   547  5.46  0.  0.
   548  5.47  0.  0.
   549  5.48  0.  0.
   550  5.49  0.  0.
   551  5.50  0.  0.
   552  5.51  0.  0.
   553  5.52  0.  0.
   554  5.53  0.  0.
   555  5.54  0.  0.
   556  5.55  0.  0.
   557  5.56  0.  0.
   558  5.57  0.  0.
   559  5.58  0.  0.
   560  5.59  0.  0.
   561  5.60  0.  0.
   562  5.61  0.  0.
   563  5.62  0.  0.
   564  5.63  0.  0.
   565  5.64  0.  0.
   566  5.65  0.  0.
   567  5.66  0.  0.
   568  5.67  0.  0.
   569  5.68  0.  0.
   570  5.69  0.  0.
   571  5.70  0.  0.
   572  5.71  0.  0.
   573  5.72  0.  0.
   574  5.73  0.  0.
   575  5.74  0.  0.
   576  5.75  0.  0.
   577  5.76  0.  0.
   578  5.77  0.  0.
   579  5.78  0.  0.
   580  5.79  0.  0.
   581  5.80  0.  0.
   582  5.81  0.  0.
   583  5.82  0.  0.
   584  5.83  0.  0.
   585  5.84  0.  0.
   586  5.85  0.  0.
   587  5.86  0.  0.
   588  5.87  0.  0.
   589  5.88  0.  0.
   590  5.89  0.  0.
   591  5.90  0.  0.
   592  5.91  0.  0.
   593  5.92  0.  0.
   594  5.93  0.  0.
   595  5.94  0.  0.
   596  5.95  0.  0.
   597  5.96  0.  0.
   598  5.97  0.  0.
   599  5.98  0.  0.
   600  5.99  0.  0.
   1                         9.2785977054606E+00  1.9036425195688E+00
     1  0.0000000000000E+00  4.3963145623938E-10 -5.5970946627459E-10
     2  1.0000000000000E-02  1.9696566966155E-03 -1.0026547939247E-03
     3  2.0000000000000E-02  7.8692837090937E-03 -4.0022898031795E-03
     4  3.0000000000000E-02  1.7670897142734E-02 -8.9739680453749E-03
     5  4.0000000000000E-02  3.1328008068390E-02 -1.5876298040869E-02
     6  5.0000000000000E-02  4.8775848064355E-02 -2.4651688026427E-02
     7  6.0000000000000E-02  6.9931683376876E-02 -3.5226699814269E-02
     8  7.0000000000000E-02  9.4695216111199E-02 -4.7512500270184E-02
     9  8.0000000000000E-02  1.2294907042544E-01 -6.1405407824701E-02
    10  9.0000000000000E-02  1.5455936127056E-01 -7.6787530886129E-02
    11  1.0000000000000E-01  1.8937634280337E-01 -9.3527494496523E-02
    12  1.1000000000000E-01  2.2723513319828E-01 -1.1148125106409E-01
    13  1.2000000000000E-01  2.6795651219891E-01 -1.3049297052144E-01
    14  1.3000000000000E-01  3.1134778738542E-01 -1.5039600480048E-01
    15  1.4000000000000E-01  3.5720372478886E-01 -1.7101392108501E-01
    16  1.5000000000000E-01  4.0530753916179E-01 -1.9216159790264E-01
    17  1.6000000000000E-01  4.5543193891701E-01 -2.1364637775169E-01
    18  1.7000000000000E-01  5.0734022047418E-01 -2.3526926962748E-01
    19  1.8000000000000E-01  5.6078740650956E-01 -2.5682619451833E-01
    20  1.9000000000000E-01  6.1552142238803E-01 -2.7810926668587E-01
    21  2.0000000000000E-01  6.7128430486964E-01 -2.9890810332848E-01
    22  2.1000000000000E-01  7.2781343702678E-01 -3.1901115505228E-01
    23  2.2000000000000E-01  7.8484280318327E-01 -3.3820704944151E-01
    24  2.3000000000000E-01  8.4210425759316E-01 -3.5628593993083E-01
    25  2.4000000000000E-01  8.9932880051644E-01 -3.7304085213551E-01
    26  2.5000000000000E-01  9.5624785532031E-01 -3.8826901979353E-01
    27  2.6000000000000E-01  1.0125945402391E+00 -4.0177320251439E-01
    28  2.7000000000000E-01  1.0681049284628E+00 -4.1336297761408E-01
    29  2.8000000000000E-01  1.1225192902930E+00 -4.2285599844371E-01
    30  2.9000000000000E-01  1.1755833112071E+00 -4.3007921178890E-01
    31  3.0000000000000E-01  1.2270492798027E+00 -4.3487002712875E-01
    32  3.1000000000000E-01  1.2766772397584E+00 -4.3707743079490E-01
    33  3.2000000000000E-01  1.3242361001397E+00 -4.3656303836184E-01
    34  3.3000000000000E-01  1.3695046985989E+00 -4.3320207892786E-01
    35  3.4000000000000E-01  1.4122728122698E+00 -4.2688430530964E-01
    36  3.5000000000000E-01  1.4523421114287E+00 -4.1751482457082E-01
    37  3.6000000000000E-01  1.4895270512978E+00 -4.0501484373411E-01
    38  3.7000000000000E-01  1.5236556976847E+00 -3.8932232598426E-01
    39  3.8000000000000E-01  1.5545704825015E+00 -3.7039255315474E-01
    40  3.9000000000000E-01  1.5821288855656E+00 -3.4819859079962E-01
    41  4.0000000000000E-01  1.6062040394687E+00 -3.2273165268354E-01
    42  4.1000000000000E-01  1.6266852546973E+00 -2.9400136207146E-01
    43  4.2000000000000E-01  1.6434784625980E+00 -2.6203590776557E-01
    44  4.3000000000000E-01  1.6565065742031E+00 -2.2688209341470E-01
    45  4.4000000000000E-01  1.6657097533651E+00 -1.8860527920924E-01
    46  4.5000000000000E-01  1.6710456030855E+00 -1.4728921566903E-01
    47  4.6000000000000E-01  1.6724892643680E+00 -1.0303576983025E-01
    48  4.7000000000000E-01  1.6700334273728E+00 -5.5964544735089E-02
    49  4.8000000000000E-01  1.6636882550947E+00 -6.2123937245594E-03
    50  4.9000000000000E-01  1.6534812202327E+00  4.6067168375524E-02
    51  5.0000000000000E-01  1.6394568563602E+00  1.0070465450385E-01
    52  5.1000000000000E-01  1.6216764249393E+00  1.5751539180674E-01
    53  5.2000000000000E-01  1.6002175001473E+00  2.1630040147940E-01
    54  5.3000000000000E-01  1.5751734739027E+00  2.7684736767123E-01
    55  5.4000000000000E-01  1.5466529838777E+00  3.3893169060432E-01
    56  5.5000000000000E-01  1.5147792676751E+00  4.0231761855961E-01
    57  5.6000000000000E-01  1.4796894467193E+00  4.6675945291554E-01
    58  5.7000000000000E-01  1.4415337437655E+00  5.3200281998251E-01
    59  5.8000000000000E-01  1.4004746382673E+00  5.9778600296378E-01
    60  5.9000000000000E-01  1.3566859641541E+00  6.6384132699322E-01
    61  6.0000000000000E-01  1.3103519548623E+00  7.2989658985294E-01
    62  6.1000000000000E-01  1.2616662407316E+00  7.9567653066184E-01
    63  6.2000000000000E-01  1.2108308041179E+00  8.6090432855001E-01
    64  6.3000000000000E-01  1.1580548977912E+00  9.2530312309660E-01
    65  6.4000000000000E-01  1.1035539323755E+00  9.8859754810889E-01
    66  6.5000000000000E-01  1.0475483387475E+00  1.0505152701606E+00
    67  6.6000000000000E-01  9.9026241144580E-01  1.1107885231881E+00
    68  6.7000000000000E-01  9.3192313924253E-01  1.1691556303630E+00
    69  6.8000000000000E-01  8.7275902910803E-01  1.2253625044223E+00
    70  6.9000000000000E-01  8.1299892984131E-01  1.2791641176378E+00
    71  7.0000000000000E-01  7.5287086165733E-01  1.3303259326501E+00
    72  7.1000000000000E-01  6.9260085800854E-01  1.3786252854723E+00
    73  7.2000000000000E-01  6.3241182587696E-01  1.4238527120934E+00
    74  7.3000000000000E-01  5.7252243070309E-01  1.4658132102671E+00
    75  7.4000000000000E-01  5.1314601202077E-01  1.5043274282713E+00
    76  7.5000000000000E-01  4.5448953574258E-01  1.5392327726546E+00
    77  7.6000000000000E-01  3.9675258889000E-01  1.5703844272554E+00
    78  7.7000000000000E-01  3.4012642238687E-01  1.5976562760776E+00
    79  7.8000000000000E-01  2.8479304733535E-01  1.6209417229400E+00
    80  7.9000000000000E-01  2.3092438997084E-01  1.6401544011776E+00
    81  8.0000000000000E-01  1.7868151024887E-01  1.6552287670621E+00
    82  8.1000000000000E-01  1.2821388875268E-01  1.6661205710201E+00
    83  8.2000000000000E-01  7.9658786327670E-02  1.6728072011691E+00
    84  8.3000000000000E-01  3.3140680549543E-02  1.6752878941457E+00
    85  8.4000000000000E-01 -1.1229217182477E-02  1.6735838086778E+00
    86  8.5000000000000E-01 -5.3353360464376E-02  1.6677379578459E+00
    87  8.6000000000000E-01 -9.3148179496087E-02  1.6578149964819E+00
    88  8.7000000000000E-01 -1.3054430270927E-01  1.6439008606742E+00
    89  8.8000000000000E-01 -1.6548668600249E-01  1.6261022568689E+00
    90  8.9000000000000E-01 -1.9793464753860E-01  1.6045459985925E+00
    91  9.0000000000000E-01 -2.2786180642981E-01  1.5793781893513E+00
    92  9.1000000000000E-01 -2.5525592401000E-01  1.5507632508024E+00
    93  9.2000000000000E-01 -2.8011864676940E-01  1.5188827958225E+00
    94  9.3000000000000E-01 -3.0246515040095E-01  1.4839343466313E+00
    95  9.4000000000000E-01 -3.2232368478071E-01  1.4461298986505E+00
    96  9.5000000000000E-01 -3.3973502007280E-01  1.4056943312937E+00
    97  9.6000000000000E-01 -3.5475179451282E-01  1.3628636673882E+00
    98  9.7000000000000E-01 -3.6743776477912E-01  1.3178831834197E+00
    99  9.8000000000000E-01 -3.7786696020883E-01  1.2710053732713E+00
   100  9.9000000000000E-01 -3.8612274245282E-01  1.2224877685850E+00
   101  1.0000000000000E+00 -3.9229677248913E-01  1.1725906193202E+00
   102  1.0100000000000E+00 -3.9648788722817E-01  1.1215744385048E+00
   103  1.0200000000000E+00 -3.9880088824183E-01  1.0696974155774E+00
   104  1.0300000000000E+00 -3.9934524543335E-01  1.0172127030988E+00
   105  1.0400000000000E+00 -3.9823371873350E-01  9.6436558196835E-01
   106  1.0500000000000E+00 -3.9558090116072E-01  9.1139051061172E-01