Pd    ONCVPSP-4.0.1  r_core=   1.97027   1.90080   2.20743
     46.0000     18.0000      230118    zatom,zion,pspd
     8       2   2     4   600     0    pspcod,pspxc,lmax,lloc,mmax,r2well
  5.99000000  7.00000000  0.00000000    rchrg fchrg qchrg
     2     2     2     0     0    nproj
     1     1           extension_switch
   0                         2.9852678238038E+00 -4.4112733190983E-01
     1  0.0000000000000E+00 -4.4413916988617E-11 -4.5939863024813E-11
     2  1.0000000000000E-02  6.4200219285846E-02  1.3695255574206E-02
     3  2.0000000000000E-02  1.2827059845135E-01  2.7390380497685E-02
     4  3.0000000000000E-02  1.9208163250900E-01  4.1085280492482E-02
     5  4.0000000000000E-02  2.5550448537845E-01  5.4779933270334E-02
     6  5.0000000000000E-02  3.1841132095515E-01  6.8474422649814E-02
     7  6.0000000000000E-02  3.8067563014921E-01  8.2168970453441E-02
     8  7.0000000000000E-02  4.4217255260381E-01  9.5863965499546E-02
     9  8.0000000000000E-02  5.0277919184738E-01  1.0955998904961E-01
    10  9.0000000000000E-02  5.6237492268761E-01  1.2325783612786E-01
    11  1.0000000000000E-01  6.2084168971960E-01  1.3695853219526E-01
    12  1.1000000000000E-01  6.7806429589199E-01  1.5066334473399E-01
    13  1.2000000000000E-01  7.3393068015504E-01  1.6437378937897E-01
    14  1.3000000000000E-01  7.8833218330025E-01  1.7809163032059E-01
    15  1.4000000000000E-01  8.4116380119291E-01  1.9181887479382E-01
    16  1.5000000000000E-01  8.9232442469418E-01  2.0555776156419E-01
    17  1.6000000000000E-01  9.4171706566821E-01  2.1931074341771E-01
    18  1.7000000000000E-01  9.8924906856972E-01  2.3308046375891E-01
    19  1.8000000000000E-01  1.0348323072084E+00  2.4686972751733E-01
    20  1.9000000000000E-01  1.0783833663861E+00  2.6068146665624E-01
    21  2.0000000000000E-01  1.1198237082011E+00  2.7451870066661E-01
    22  2.1000000000000E-01  1.1590798229076E+00  2.8838449251370E-01
    23  2.2000000000000E-01  1.1960833643098E+00  3.0228190058088E-01
    24  2.3000000000000E-01  1.2307712697552E+00  3.1621392722487E-01
    25  2.4000000000000E-01  1.2630858648681E+00  3.3018346461701E-01
    26  2.5000000000000E-01  1.2929749532400E+00  3.4419323859604E-01
    27  2.6000000000000E-01  1.3203918913536E+00  3.5824575129741E-01
    28  2.7000000000000E-01  1.3452956490749E+00  3.7234322335308E-01
    29  2.8000000000000E-01  1.3676508560934E+00  3.8648753647203E-01
    30  2.9000000000000E-01  1.3874278347294E+00  4.0068017721635E-01
    31  3.0000000000000E-01  1.4046026195521E+00  4.1492218278003E-01
    32  3.1000000000000E-01  1.4191569642770E+00  4.2921408955726E-01
    33  3.2000000000000E-01  1.4310783364151E+00  4.4355588525540E-01
    34  3.3000000000000E-01  1.4403599001502E+00  4.5794696526367E-01
    35  3.4000000000000E-01  1.4470004879142E+00  4.7238609393451E-01
    36  3.5000000000000E-01  1.4510045611131E+00  4.8687137136935E-01
    37  3.6000000000000E-01  1.4523821604346E+00  5.0140020622695E-01
    38  3.7000000000000E-01  1.4511488461411E+00  5.1596929498965E-01
    39  3.8000000000000E-01  1.4473256287158E+00  5.3057460803408E-01
    40  3.9000000000000E-01  1.4409388901932E+00  5.4521138275766E-01
    41  4.0000000000000E-01  1.4320202964630E+00  5.5987412391293E-01
    42  4.1000000000000E-01  1.4206067007914E+00  5.7455661119969E-01
    43  4.2000000000000E-01  1.4067400387615E+00  5.8925191406150E-01
    44  4.3000000000000E-01  1.3904672147877E+00  6.0395241352984E-01
    45  4.4000000000000E-01  1.3718399803166E+00  6.1864983085771E-01
    46  4.5000000000000E-01  1.3509148037862E+00  6.3333526258666E-01
    47  4.6000000000000E-01  1.3277527323766E+00  6.4799922159750E-01
    48  4.7000000000000E-01  1.3024192455553E+00  6.6263168360836E-01
    49  4.8000000000000E-01  1.2749841003903E+00  6.7722213850393E-01
    50  4.9000000000000E-01  1.2455211685859E+00  6.9175964580942E-01
    51  5.0000000000000E-01  1.2141082651815E+00  7.0623289356186E-01
    52  5.1000000000000E-01  1.1808269688487E+00  7.2063025978180E-01
    53  5.2000000000000E-01  1.1457624337256E+00  7.3493987571033E-01
    54  5.3000000000000E-01  1.1090031927385E+00  7.4914968995083E-01
    55  5.4000000000000E-01  1.0706409523816E+00  7.6324753264210E-01
    56  5.5000000000000E-01  1.0307703789569E+00  7.7722117878977E-01
    57  5.6000000000000E-01  9.8948887631368E-01  7.9105840989654E-01
    58  5.7000000000000E-01  9.4689635517528E-01  8.0474707305863E-01
    59  5.8000000000000E-01  9.0309499419793E-01  8.1827513673486E-01
    60  5.9000000000000E-01  8.5818899296798E-01  8.3163074244706E-01
    61  6.0000000000000E-01  8.1228431721644E-01  8.4480225173336E-01
    62  6.1000000000000E-01  7.6548843660578E-01  8.5777828775017E-01
    63  6.2000000000000E-01  7.1791005552605E-01  8.7054777100242E-01
    64  6.3000000000000E-01  6.6965883742347E-01  8.8309994877378E-01
    65  6.4000000000000E-01  6.2084512327363E-01  8.9542441792775E-01
    66  6.5000000000000E-01  5.7157964490168E-01  9.0751114085603E-01
    67  6.6000000000000E-01  5.2197323394260E-01  9.1935045445954E-01
    68  6.7000000000000E-01  4.7213652732408E-01  9.3093307215926E-01
    69  6.8000000000000E-01  4.2217967024122E-01  9.4225007904710E-01
    70  6.9000000000000E-01  3.7221201767480E-01  9.5329292039871E-01
    71  7.0000000000000E-01  3.2234183558233E-01  9.6405338387966E-01
    72  7.1000000000000E-01  2.7267600296107E-01  9.7452357588171E-01
    73  7.2000000000000E-01  2.2331971604450E-01  9.8469589252551E-01
    74  7.3000000000000E-01  1.7437619594641E-01  9.9456298595800E-01
    75  7.4000000000000E-01  1.2594640110872E-01  1.0041177266564E+00
    76  7.5000000000000E-01  7.8128745940031E-02  1.0133531625237E+00
    77  7.6000000000000E-01  3.1018827049675E-02  1.0222624756221E+00
    78  7.7000000000000E-01 -1.5290841512699E-02  1.0308389374417E+00
    79  7.8000000000000E-01 -6.0711082610985E-02  1.0390758636357E+00
    80  7.9000000000000E-01 -1.0515629859169E-01  1.0469665691770E+00
    81  8.0000000000000E-01 -1.4854470072716E-01  1.0545043248997E+00
    82  8.1000000000000E-01 -1.9079852424359E-01  1.0616823163798E+00
    83  8.2000000000000E-01 -2.3184422770996E-01  1.0684936060890E+00
    84  8.3000000000000E-01 -2.7161267564361E-01  1.0749310997202E+00
    85  8.4000000000000E-01 -3.1003930328090E-01  1.0809875175299E+00
    86  8.5000000000000E-01 -3.4706426256616E-01  1.0866553714815E+00
    87  8.6000000000000E-01 -3.8263254852926E-01  1.0919269488938E+00
    88  8.7000000000000E-01 -4.1669410534861E-01  1.0967943032124E+00
    89  8.8000000000000E-01 -4.4920391153291E-01  1.1012492524194E+00
    90  8.9000000000000E-01 -4.8012204379868E-01  1.1052833854894E+00
    91  9.0000000000000E-01 -5.0941371937077E-01  1.1088880771830E+00
    92  9.1000000000000E-01 -5.3704931658755E-01  1.1120545113444E+00
    93  9.2000000000000E-01 -5.6300437385038E-01  1.1147737127432E+00
    94  9.3000000000000E-01 -5.8725956711512E-01  1.1170365873685E+00
    95  9.4000000000000E-01 -6.0980066628177E-01  1.1188339709552E+00
    96  9.5000000000000E-01 -6.3061847099353E-01  1.1201566853880E+00
    97  9.6000000000000E-01 -6.4970872650762E-01  1.1209956025044E+00
    98  9.7000000000000E-01 -6.6707202044514E-01  1.1213417146948E+00
    99  9.8000000000000E-01 -6.8271366136446E-01  1.1211862115820E+00
   100  9.9000000000000E-01 -6.9664354023007E-01  1.1205205619546E+00
   101  1.0000000000000E+00 -7.0887597596581E-01  1.1193366000331E+00
   102  1.0100000000000E+00 -7.1942954638546E-01  1.1176266150599E+00
   103  1.0200000000000E+00 -7.2832690588460E-01  1.1153834431352E+00
   104  1.0300000000000E+00 -7.3559459135387E-01  1.1126005601575E+00
   105  1.0400000000000E+00 -7.4126281783409E-01  1.1092721746902E+00
   106  1.0500000000000E+00 -7.4536526547830E-01  1.1053933195432E+00
   107  1.0600000000000E+00 -7.4793885941349E-01  1.1009599408519E+00
   108  1.0700000000000E+00 -7.4902354410551E-01  1.0959689834397E+00
   109  1.0800000000000E+00 -7.4866205382432E-01  1.0904184712751E+00
   110  1.0900000000000E+00 -7.4689968078402E-01  1.0843075818742E+00
   111  1.1000000000000E+00 -7.4378404249239E-01  1.0776367135555E+00
   112  1.1100000000000E+00 -7.3936484978967E-01  1.0704075445281E+00
   113  1.1200000000000E+00 -7.3369367698621E-01  1.0626230828805E+00
   114  1.1300000000000E+00 -7.2682373542436E-01  1.0542877066400E+00
   115  1.1400000000000E+00 -7.1880965169373E-01  1.0454071931870E+00
   116  1.1500000000000E+00 -7.0970725162007E-01  1.0359887374340E+00
   117  1.1600000000000E+00 -6.9957335103125E-01  1.0260409583135E+00
   118  1.1700000000000E+00 -6.8846555417662E-01  1.0155738932647E+00
   119  1.1800000000000E+00 -6.7644206054492E-01  1.0045989805548E+00
   120  1.1900000000000E+00 -6.6356148068781E-01  9.9312902942691E-01
   121  1.2000000000000E+00 -6.4988266151755E-01  9.8117817821792E-01
   122  1.2100000000000E+00 -6.3546452140664E-01  9.6876184074811E-01
   123  1.2200000000000E+00 -6.2036589527818E-01  9.5589664143354E-01
   124  1.2300000000000E+00 -6.0464538974037E-01  9.4260033972119E-01
   125  1.2400000000000E+00 -5.8836124818698E-01  9.2889174458826E-01
   126  1.2500000000000E+00 -5.7157122566223E-01  9.1479061997892E-01
   127  1.2600000000000E+00 -5.5433247317239E-01  9.0031758217444E-01
   128  1.2700000000000E+00 -5.3670143102073E-01  8.8549399020283E-01
   129  1.2800000000000E+00 -5.1873373064840E-01  8.7034183048985E-01
   130  1.2900000000000E+00 -5.0048410438168E-01  8.5488359703515E-01
   131  1.3000000000000E+00 -4.8200630241796E-01  8.3914216846169E-01
   132  1.3100000000000E+00 -4.6335301632917E-01  8.2314068333415E-01
   133  1.3200000000000E+00 -4.4457580832243E-01  8.0690241517196E-01
   134  1.3300000000000E+00 -4.2572504547433E-01  7.9045064859302E-01
   135  1.3400000000000E+00 -4.0684983814780E-01  7.7380855801684E-01
   136  1.3500000000000E+00 -3.8799798180764E-01  7.5699909032925E-01
   137  1.3600000000000E+00 -3.6921590147401E-01  7.4004485286573E-01
   138  1.3700000000000E+00 -3.5054859809057E-01  7.2296800800782E-01
   139  1.3800000000000E+00 -3.3203959613513E-01  7.0579017560693E-01
   140  1.3900000000000E+00 -3.1373089186456E-01  6.8853234435429E-01
   141  1.4000000000000E+00 -2.9566290166215E-01  6.7121479310462E-01
   142  1.4100000000000E+00 -2.7787441004099E-01  6.5385702303734E-01
   143  1.4200000000000E+00 -2.6040251695249E-01  6.3647770140330E-01
   144  1.4300000000000E+00 -2.4328258415097E-01  6.1909461745956E-01
   145  1.4400000000000E+00 -2.2654818047264E-01  6.0172465104181E-01
   146  1.4500000000000E+00 -2.1023102599878E-01  5.8438375406418E-01
   147  1.4600000000000E+00 -1.9436093518528E-01  5.6708694507425E-01
   148  1.4700000000000E+00 -1.7896575915304E-01  5.4984831682679E-01
   149  1.4800000000000E+00 -1.6407132744423E-01  5.3268105667672E-01
   150  1.4900000000000E+00 -1.4970138965486E-01  5.1559747943167E-01
   151  1.5000000000000E+00 -1.3587755745431E-01  4.9860907215042E-01
   152  1.5100000000000E+00 -1.2261924759446E-01  4.8172655022552E-01
   153  1.5200000000000E+00 -1.0994362659365E-01  4.6495992395106E-01
   154  1.5300000000000E+00 -9.7865557852039E-02  4.4831857465049E-01
   155  1.5400000000000E+00 -8.6397552014137E-02  4.3181133932525E-01
   156  1.5500000000000E+00 -7.5549721439794E-02  4.1544660268707E-01
   157  1.5600000000000E+00 -6.5329739675588E-02  3.9923239535333E-01
   158  1.5700000000000E+00 -5.5742806834163E-02  3.8317649691958E-01
   159  1.5800000000000E+00 -4.6791621788410E-02  3.6728654257518E-01
   160  1.5900000000000E+00 -3.8476362070694E-02  3.5157013189874E-01
   161  1.6000000000000E+00 -3.0794672334186E-02  3.3603493845960E-01
   162  1.6100000000000E+00 -2.3741662184013E-02  3.2068881885995E-01
   163  1.6200000000000E+00 -1.7309914120981E-02  3.0553991987946E-01
   164  1.6300000000000E+00 -1.1489502260565E-02  2.9059678242957E-01
   165  1.6400000000000E+00 -6.2680223955292E-03  2.7586844108795E-01
   166  1.6500000000000E+00 -1.6306338633809E-03  2.6136451806286E-01
   167  1.6600000000000E+00  2.4398864392184E-03  2.4709531053241E-01
   168  1.6700000000000E+00  5.9630776820849E-03  2.3307187041269E-01
   169  1.6800000000000E+00  8.9607162918255E-03  2.1930607572985E-01
   170  1.6900000000000E+00  1.1456724775813E-02  2.0581069290332E-01
   171  1.7000000000000E+00  1.3477068397781E-02  1.9259942938755E-01
   172  1.7100000000000E+00  1.5049640074675E-02  1.7968697626687E-01
   173  1.7200000000000E+00  1.6204134121423E-02  1.6708904072019E-01
   174  1.7300000000000E+00  1.6971909413065E-02  1.5482236806260E-01
   175  1.7400000000000E+00  1.7385838208160E-02  1.4290474612228E-01
   176  1.7500000000000E+00  1.7480169950783E-02  1.3135503799778E-01
   177  1.7600000000000E+00  1.7290224994471E-02  1.2019294048477E-01
   178  1.7700000000000E+00  1.6851607433549E-02  1.0943797981358E-01
   179  1.7800000000000E+00  1.6199518930880E-02  9.9108720158671E-02
   180  1.7900000000000E+00  1.5368531567846E-02  8.9222735169376E-02
   181  1.8000000000000E+00  1.4392361597883E-02  7.9796571798494E-02
   182  1.8100000000000E+00  1.3303649661521E-02  7.0845714581372E-02
   183  1.8200000000000E+00  1.2133744813176E-02  6.2384544321610E-02
   184  1.8300000000000E+00  1.0912494027428E-02  5.4426292488257E-02
   185  1.8400000000000E+00  9.6680402425895E-03  4.6982995868572E-02
   186  1.8500000000000E+00  8.4266157192926E-03  4.0065418875540E-02
   187  1.8600000000000E+00  7.2123960827731E-03  3.3683087100482E-02
   188  1.8700000000000E+00  6.0472607911272E-03  2.7844101649500E-02
   189  1.8800000000000E+00  4.9497342553740E-03  2.2552951622610E-02
   190  1.8900000000000E+00  3.9354163685337E-03  1.7811697166086E-02
   191  1.9000000000000E+00  3.0195515093862E-03  1.3626272640516E-02
   192  1.9100000000000E+00  2.2143580085751E-03  1.0000731964268E-02
   193  1.9200000000000E+00  1.5289992310501E-03  6.9373156513115E-03
   194  1.9300000000000E+00  9.6951079093417E-04  4.4363988888653E-03
   195  1.9400000000000E+00  5.3892042922247E-04  2.4972867979015E-03
   196  1.9500000000000E+00  2.3575910008170E-04  1.1107774787421E-03
   197  1.9600000000000E+00  6.0080366859536E-05  2.8927878000599E-04
   198  1.9700000000000E+00  5.0342632795723E-07  2.5037605701917E-06
   199  1.9800000000000E+00 -1.3795184823255E-06 -6.8664120153677E-06
   200  1.9900000000000E+00  9.1087442321245E-07  4.4478966686659E-06
   201  2.00 -0. -0.
   202  2.01  0. -0.
   203  2.02  0.  0.
   204  2.03  0.  0.
   205  2.04  0.  0.
   206  2.05  0.  0.
   207  2.06  0.  0.
   208  2.07  0.  0.
   209  2.08  0.  0.
   210  2.09  0.  0.
   211  2.10  0.  0.
   212  2.11  0.  0.
   213  2.12  0.  0.
   214  2.13  0.  0.
   215  2.14  0.  0.
   216  2.15  0.  0.
   217  2.16  0.  0.
   218  2.17  0.  0.
   219  2.18  0.  0.
   220  2.19  0.  0.
   221  2.20  0.  0.
   222  2.21  0.  0.
   223  2.22  0.  0.
   224  2.23  0.  0.
   225  2.24  0.  0.
   226  2.25  0.  0.
   227  2.26  0.  0.
   228  2.27  0.  0.
   229  2.28  0.  0.
   230  2.29  0.  0.
   231  2.30  0.  0.
   232  2.31  0.  0.
   233  2.32  0.  0.
   234  2.33  0.  0.
   235  2.34  0.  0.
   236  2.35  0.  0.
   237  2.36  0.  0.
   238  2.37  0.  0.
   239  2.38  0.  0.
   240  2.39  0.  0.
   241  2.40  0.  0.
   242  2.41  0.  0.
   243  2.42  0.  0.
   244  2.43  0.  0.
   245  2.44  0.  0.
   246  2.45  0.  0.
   247  2.46  0.  0.
   248  2.47  0.  0.
   249  2.48  0.  0.
   250  2.49  0.  0.
   251  2.50  0.  0.
   252  2.51  0.  0.
   253  2.52  0.  0.
   254  2.53  0.  0.
   255  2.54  0.  0.
   256  2.55  0.  0.
   257  2.56  0.  0.
   258  2.57  0.  0.
   259  2.58  0.  0.
   260  2.59  0.  0.
   261  2.60  0.  0.
   262  2.61  0.  0.
   263  2.62  0.  0.
   264  2.63  0.  0.
   265  2.64  0.  0.
   266  2.65  0.  0.
   267  2.66  0.  0.
   268  2.67  0.  0.
   269  2.68  0.  0.
   270  2.69  0.  0.
   271  2.70  0.  0.
   272  2.71  0.  0.
   273  2.72  0.  0.
   274  2.73  0.  0.
   275  2.74  0.  0.
   276  2.75  0.  0.
   277  2.76  0.  0.
   278  2.77  0.  0.
   279  2.78  0.  0.
   280  2.79  0.  0.
   281  2.80  0.  0.
   282  2.81  0.  0.
   283  2.82  0.  0.
   284  2.83  0.  0.
   285  2.84  0.  0.
   286  2.85  0.  0.
   287  2.86  0.  0.
   288  2.87  0.  0.
   289  2.88  0.  0.
   290  2.89  0.  0.
   291  2.90  0.  0.
   292  2.91  0.  0.
   293  2.92  0.  0.
   294  2.93  0.  0.
   295  2.94  0.  0.
   296  2.95  0.  0.
   297  2.96  0.  0.
   298  2.97  0.  0.
   299  2.98  0.  0.
   300  2.99  0.  0.
   301  3.00  0.  0.
   302  3.01  0.  0.
   303  3.02  0.  0.
   304  3.03  0.  0.
   305  3.04  0.  0.
   306  3.05  0.  0.
   307  3.06  0.  0.
   308  3.07  0.  0.
   309  3.08  0.  0.
   310  3.09  0.  0.
   311  3.10  0.  0.
   312  3.11  0.  0.
   313  3.12  0.  0.
   314  3.13  0.  0.
   315  3.14  0.  0.
   316  3.15  0.  0.
   317  3.16  0.  0.
   318  3.17  0.  0.
   319  3.18  0.  0.
   320  3.19  0.  0.
   321  3.20  0.  0.
   322  3.21  0.  0.
   323  3.22  0.  0.
   324  3.23  0.  0.
   325  3.24  0.  0.
   326  3.25  0.  0.
   327  3.26  0.  0.
   328  3.27  0.  0.
   329  3.28  0.  0.
   330  3.29  0.  0.
   331  3.30  0.  0.
   332  3.31  0.  0.
   333  3.32  0.  0.
   334  3.33  0.  0.
   335  3.34  0.  0.
   336  3.35  0.  0.
   337  3.36  0.  0.
   338  3.37  0.  0.
   339  3.38  0.  0.
   340  3.39  0.  0.
   341  3.40  0.  0.
   342  3.41  0.  0.
   343  3.42  0.  0.
   344  3.43  0.  0.
   345  3.44  0.  0.
   346  3.45  0.  0.
   347  3.46  0.  0.
   348  3.47  0.  0.
   349  3.48  0.  0.
   350  3.49  0.  0.
   351  3.50  0.  0.
   352  3.51  0.  0.
   353  3.52  0.  0.
   354  3.53  0.  0.
   355  3.54  0.  0.
   356  3.55  0.  0.
   357  3.56  0.  0.
   358  3.57  0.  0.
   359  3.58  0.  0.
   360  3.59  0.  0.
   361  3.60  0.  0.
   362  3.61  0.  0.
   363  3.62  0.  0.
   364  3.63  0.  0.
   365  3.64  0.  0.
   366  3.65  0.  0.
   367  3.66  0.  0.
   368  3.67  0.  0.
   369  3.68  0.  0.
   370  3.69  0.  0.
   371  3.70  0.  0.
   372  3.71  0.  0.
   373  3.72  0.  0.
   374  3.73  0.  0.
   375  3.74  0.  0.
   376  3.75  0.  0.
   377  3.76  0.  0.
   378  3.77  0.  0.
   379  3.78  0.  0.
   380  3.79  0.  0.
   381  3.80  0.  0.
   382  3.81  0.  0.
   383  3.82  0.  0.
   384  3.83  0.  0.
   385  3.84  0.  0.
   386  3.85  0.  0.
   387  3.86  0.  0.
   388  3.87  0.  0.
   389  3.88  0.  0.
   390  3.89  0.  0.
   391  3.90  0.  0.
   392  3.91  0.  0.
   393  3.92  0.  0.
   394  3.93  0.  0.
   395  3.94  0.  0.
   396  3.95  0.  0.
   397  3.96  0.  0.
   398  3.97  0.  0.
   399  3.98  0.  0.
   400  3.99  0.  0.
   401  4.00  0.  0.
   402  4.01  0.  0.
   403  4.02  0.  0.
   404  4.03  0.  0.
   405  4.04  0.  0.
   406  4.05  0.  0.
   407  4.06  0.  0.
   408  4.07  0.  0.
   409  4.08  0.  0.
   410  4.09  0.  0.
   411  4.10  0.  0.
   412  4.11  0.  0.
   413  4.12  0.  0.
   414  4.13  0.  0.
   415  4.14  0.  0.
   416  4.15  0.  0.
   417  4.16  0.  0.
   418  4.17  0.  0.
   419  4.18  0.  0.
   420  4.19  0.  0.
   421  4.20  0.  0.
   422  4.21  0.  0.
   423  4.22  0.  0.
   424  4.23  0.  0.
   425  4.24  0.  0.
   426  4.25  0.  0.
   427  4.26  0.  0.
   428  4.27  0.  0.
   429  4.28  0.  0.
   430  4.29  0.  0.
   431  4.30  0.  0.
   432  4.31  0.  0.
   433  4.32  0.  0.
   434  4.33  0.  0.
   435  4.34  0.  0.
   436  4.35  0.  0.
   437  4.36  0.  0.
   438  4.37  0.  0.
   439  4.38  0.  0.
   440  4.39  0.  0.
   441  4.40  0.  0.
   442  4.41  0.  0.
   443  4.42  0.  0.
   444  4.43  0.  0.
   445  4.44  0.  0.
   446  4.45  0.  0.
   447  4.46  0.  0.
   448  4.47  0.  0.
   449  4.48  0.  0.
   450  4.49  0.  0.
   451  4.50  0.  0.
   452  4.51  0.  0.
   453  4.52  0.  0.
   454  4.53  0.  0.
   455  4.54  0.  0.
   456  4.55  0.  0.
   457  4.56  0.  0.
   458  4.57  0.  0.
   459  4.58  0.  0.
   460  4.59  0.  0.
   461  4.60  0.  0.
   462  4.61  0.  0.
   463  4.62  0.  0.
   464  4.63  0.  0.
   465  4.64  0.  0.
   466  4.65  0.  0.
   467  4.66  0.  0.
   468  4.67  0.  0.
   469  4.68  0.  0.
   470  4.69  0.  0.
   471  4.70  0.  0.
   472  4.71  0.  0.
   473  4.72  0.  0.
   474  4.73  0.  0.
   475  4.74  0.  0.
   476  4.75  0.  0.
   477  4.76  0.  0.
   478  4.77  0.  0.
   479  4.78  0.  0.
   480  4.79  0.  0.
   481  4.80  0.  0.
   482  4.81  0.  0.
   483  4.82  0.  0.
   484  4.83  0.  0.
   485  4.84  0.  0.
   486  4.85  0.  0.
   487  4.86  0.  0.
   488  4.87  0.  0.
   489  4.88  0.  0.
   490  4.89  0.  0.
   491  4.90  0.  0.
   492  4.91  0.  0.
   493  4.92  0.  0.
   494  4.93  0.  0.
   495  4.94  0.  0.
   496  4.95  0.  0.
   497  4.96  0.  0.
   498  4.97  0.  0.
   499  4.98  0.  0.
   500  4.99  0.  0.
   501  5.00  0.  0.
   502  5.01  0.  0.
   503  5.02  0.  0.
   504  5.03  0.  0.
   505  5.04  0.  0.
   506  5.05  0.  0.
   507  5.06  0.  0.
   508  5.07  0.  0.
   509  5.08  0.  0.
   510  5.09  0.  0.
   511  5.10  0.  0.
   512  5.11  0.  0.
   513  5.12  0.  0.
   514  5.13  0.  0.
   515  5.14  0.  0.
   516  5.15  0.  0.
   517  5.16  0.  0.
   518  5.17  0.  0.
   519  5.18  0.  0.
   520  5.19  0.  0.
   521  5.20  0.  0.
   522  5.21  0.  0.
   523  5.22  0.  0.
   524  5.23  0.  0.
   525  5.24  0.  0.
   526  5.25  0.  0.
   527  5.26  0.  0.
   528  5.27  0.  0.
   529  5.28  0.  0.
   530  5.29  0.  0.
   531  5.30  0.  0.
   532  5.31  0.  0.
   533  5.32  0.  0.
   534  5.33  0.  0.
   535  5.34  0.  0.
   536  5.35  0.  0.
   537  5.36  0.  0.
   538  5.37  0.  0.
   539  5.38  0.  0.
   540  5.39  0.  0.
   541  5.40  0.  0.
   542  5.41  0.  0.
   543  5.42  0.  0.
   544  5.43  0.  0.
   545  5.44  0.  0.
   546  5.45  0.  0.
   547  5.46  0.  0.
   548  5.47  0.  0.
   549  5.48  0.  0.
   550  5.49  0.  0.
   551  5.50  0.  0.
   552  5.51  0.  0.
   553  5.52  0.  0.
   554  5.53  0.  0.
   555  5.54  0.  0.
   556  5.55  0.  0.
   557  5.56  0.  0.
   558  5.57  0.  0.
   559  5.58  0.  0.
   560  5.59  0.  0.
   561  5.60  0.  0.
   562  5.61  0.  0.
   563  5.62  0.  0.
   564  5.63  0.  0.
   565  5.64  0.  0.
   566  5.65  0.  0.
   567  5.66  0.  0.
   568  5.67  0.  0.
   569  5.68  0.  0.
   570  5.69  0.  0.
   571  5.70  0.  0.
   572  5.71  0.  0.
   573  5.72  0.  0.
   574  5.73  0.  0.
   575  5.74  0.  0.
   576  5.75  0.  0.
   577  5.76  0.  0.
   578  5.77  0.  0.
   579  5.78  0.  0.
   580  5.79  0.  0.
   581  5.80  0.  0.
   582  5.81  0.  0.
   583  5.82  0.  0.
   584  5.83  0.  0.
   585  5.84  0.  0.
   586  5.85  0.  0.
   587  5.86  0.  0.
   588  5.87  0.  0.
   589  5.88  0.  0.
   590  5.89  0.  0.
   591  5.90  0.  0.
   592  5.91  0.  0.
   593  5.92  0.  0.
   594  5.93  0.  0.
   595  5.94  0.  0.
   596  5.95  0.  0.
   597  5.96  0.  0.
   598  5.97  0.  0.
   599  5.98  0.  0.
   600  5.99  0.  0.
   1                         3.3364237396220E+00 -1.3787890233245E+00
     1  0.0000000000000E+00  3.7498111421508E-09 -2.0901559649733E-10
     2  1.0000000000000E-02  1.9303707804106E-03  3.8080169086366E-04
     3  2.0000000000000E-02  7.7079458838798E-03  1.5233379092863E-03
     4  3.0000000000000E-02  1.7292258074218E-02  3.4279944579259E-03
     5  4.0000000000000E-02  3.0616341388715E-02  6.0953890123359E-03
     6  5.0000000000000E-02  4.7587442760738E-02  9.5263335478180E-03
     7  6.0000000000000E-02  6.8088003375001E-02  1.3721782569944E-02
     8  7.0000000000000E-02  9.1976895142993E-02  1.8682767964404E-02
     9  8.0000000000000E-02  1.1909089393623E-01  2.4410321490858E-02
    10  9.0000000000000E-02  1.4924636777983E-01  3.0905386136603E-02
    11  1.0000000000000E-01  1.8224115513615E-01  3.8168717716533E-02
    12  1.1000000000000E-01  2.1785660575932E-01  4.6200778252669E-02
    13  1.2000000000000E-01  2.5585975441297E-01  5.5001622787297E-02
    14  1.3000000000000E-01  2.9600559605397E-01  6.4570781376564E-02
    15  1.4000000000000E-01  3.3803942992431E-01  7.4907138074385E-02
    16  1.5000000000000E-01  3.8169923937326E-01  8.6008808749440E-02
    17  1.6000000000000E-01  4.2671807416807E-01  9.7873019579784E-02
    18  1.7000000000000E-01  4.7282640253757E-01  1.1049598804087E-01
    19  1.8000000000000E-01  5.1975440122117E-01  1.2387280814407E-01
    20  1.9000000000000E-01  5.6723415334464E-01  1.3799734159546E-01
    21  2.0000000000000E-01  6.1500172598578E-01  1.5286211643013E-01
    22  2.1000000000000E-01  6.6279910178788E-01  1.6845823453870E-01
    23  2.2000000000000E-01  7.1037594188418E-01  1.8477528934153E-01
    24  2.3000000000000E-01  7.5749116065681E-01  2.0180129468659E-01
    25  2.4000000000000E-01  8.0391429641225E-01  2.1952262585163E-01
    26  2.5000000000000E-01  8.4942666584730E-01  2.3792397332458E-01
    27  2.6000000000000E-01  8.9382229413793E-01  2.5698830982107E-01
    28  2.7000000000000E-01  9.3690861653549E-01  2.7669687077939E-01
    29  2.8000000000000E-01  9.7850695143293E-01  2.9702914835487E-01
    30  2.9000000000000E-01  1.0184527488889E+00  3.1796289872120E-01
    31  3.0000000000000E-01  1.0565956225053E+00  3.3947416228043E-01
    32  3.1000000000000E-01  1.0927991762702E+00  3.6153729618919E-01
    33  3.2000000000000E-01  1.1269406414393E+00  3.8412501843014E-01
    34  3.3000000000000E-01  1.1589103416744E+00  4.0720846249792E-01
    35  3.4000000000000E-01  1.1886110074303E+00  4.3075724163050E-01
    36  3.5000000000000E-01  1.2159569629374E+00  4.5473952140274E-01
    37  3.6000000000000E-01  1.2408732110156E+00  4.7912209941057E-01
    38  3.7000000000000E-01  1.2632944423618E+00  5.0387049071358E-01
    39  3.8000000000000E-01  1.2831639968278E+00  5.2894901767129E-01
    40  3.9000000000000E-01  1.3004328045643E+00  5.5432090280470E-01
    41  4.0000000000000E-01  1.3150583347159E+00  5.7994836333958E-01
    42  4.1000000000000E-01  1.3270035786418E+00  6.0579270614078E-01
    43  4.2000000000000E-01  1.3362360934003E+00  6.3181442182590E-01
    44  4.3000000000000E-01  1.3427271295133E+00  6.5797327695075E-01
    45  4.4000000000000E-01  1.3464508648432E+00  6.8422840328528E-01
    46  4.5000000000000E-01  1.3473837638081E+00  7.1053838334466E-01
    47  4.6000000000000E-01  1.3455040781945E+00  7.3686133150295E-01
    48  4.7000000000000E-01  1.3407915025343E+00  7.6315497019202E-01
    49  4.8000000000000E-01  1.3332269934795E+00  7.8937670087353E-01
    50  4.9000000000000E-01  1.3227927588774E+00  8.1548366966193E-01
    51  5.0000000000000E-01  1.3094724184100E+00  8.4143282766776E-01
    52  5.1000000000000E-01  1.2932513337714E+00  8.6718098631927E-01
    53  5.2000000000000E-01  1.2741171024999E+00  8.9268486810182E-01
    54  5.3000000000000E-01  1.2520602058171E+00  9.1790115332529E-01
    55  5.4000000000000E-01  1.2270747972432E+00  9.4278652368555E-01
    56  5.5000000000000E-01  1.1991596154049E+00  9.6729770352349E-01
    57  5.6000000000000E-01  1.1683190014077E+00  9.9139149980138E-01
    58  5.7000000000000E-01  1.1345639984592E+00  1.0150248419078E+00
    59  5.8000000000000E-01  1.0979135091602E+00  1.0381548224676E+00
    60  5.9000000000000E-01  1.0583954840683E+00  1.0607387403704E+00
    61  6.0000000000000E-01  1.0160481138223E+00  1.0827341472360E+00
    62  6.1000000000000E-01  9.7092099632261E-01  1.1040988985144E+00
    63  6.2000000000000E-01  9.2307625021201E-01  1.1247912103604E+00
    64  6.3000000000000E-01  8.7258954620105E-01  1.1447697233410E+00
    65  6.4000000000000E-01  8.1955102862966E-01  1.1639935739163E+00
    66  6.5000000000000E-01  7.6406610104437E-01  1.1824224744995E+00
    67  6.6000000000000E-01  7.0625605147428E-01  1.2000168027274E+00
    68  6.7000000000000E-01  6.4625849547804E-01  1.2167377003919E+00
    69  6.8000000000000E-01  5.8422761787271E-01  1.2325471822688E+00
    70  6.9000000000000E-01  5.2033419729017E-01  1.2474082548619E+00
    71  7.0000000000000E-01  4.5476540128747E-01  1.2612850448415E+00
    72  7.1000000000000E-01  3.8772434359876E-01  1.2741429367185E+00
    73  7.2000000000000E-01  3.1942939919220E-01  1.2859487190487E+00
    74  7.3000000000000E-01  2.5011327701504E-01  1.2966707382212E+00
    75  7.4000000000000E-01  1.8002185459512E-01  1.3062790586507E+00
    76  7.5000000000000E-01  1.0941278294627E-01  1.3147456279687E+00
    77  7.6000000000000E-01  3.8553874417628E-02  1.3220444456042E+00
    78  7.7000000000000E-01 -3.2278709842050E-02  1.3281517329589E+00
    79  7.8000000000000E-01 -1.0280245233642E-01  1.3330461032183E+00
    80  7.9000000000000E-01 -1.7273062762968E-01  1.3367087287114E+00
    81  8.0000000000000E-01 -2.4177457962705E-01  1.3391235036301E+00
    82  8.1000000000000E-01 -3.0964609794893E-01  1.3402771998514E+00
    83  8.2000000000000E-01 -3.7605986140472E-01  1.3401596135821E+00
    84  8.3000000000000E-01 -4.4073591488044E-01  1.3387637005473E+00
    85  8.4000000000000E-01 -5.0340214481843E-01  1.3360856975006E+00
    86  8.5000000000000E-01 -5.6379671791503E-01  1.3321252279150E+00
    87  8.6000000000000E-01 -6.2167044770666E-01  1.3268853898439E+00
    88  8.7000000000000E-01 -6.7678905435808E-01  1.3203728241050E+00
    89  8.8000000000000E-01 -7.2893528420773E-01  1.3125977611386E+00
    90  8.9000000000000E-01 -7.7791085744098E-01  1.3035740451258E+00
    91  9.0000000000000E-01 -8.2353821463075E-01  1.2933191342143E+00
    92  9.1000000000000E-01 -8.6566203576488E-01  1.2818540759883E+00
    93  9.2000000000000E-01 -9.0415050872908E-01  1.2692034576283E+00
    94  9.3000000000000E-01 -9.3889632797390E-01  1.2553953305343E+00
    95  9.4000000000000E-01 -9.6981740820558E-01  1.2404611095251E+00
    96  9.5000000000000E-01 -9.9685730233139E-01  1.2244354470700E+00
    97  9.6000000000000E-01 -1.0199853174908E+00  1.2073560833535E+00
    98  9.7000000000000E-01 -1.0391963277290E+00  1.1892636733168E+00
    99  9.8000000000000E-01 -1.0545102866474E+00  1.1702015921446E+00
   100  9.9000000000000E-01 -1.0659714481044E+00  1.1502157209800E+00
   101  1.0000000000000E+00 -1.0736473076687E+00  1.1293542149380E+00