Ag    ONCVPSP-4.0.1  r_core=   1.90541   2.21278   2.46435
     47.0000     19.0000      230118    zatom,zion,pspd
     8       2   2     4   600     0    pspcod,pspxc,lmax,lloc,mmax,r2well
  5.99000000  7.00000000  0.00000000    rchrg fchrg qchrg
     2     2     2     0     0    nproj
     1     1           extension_switch
   0                         5.0447456351280E+00  8.8142569014497E-01
     1  0.0000000000000E+00 -6.3082483681143E-11  1.5886748860883E-10
     2  1.0000000000000E-02  6.3055328133220E-02 -1.0773299476439E-02
     3  2.0000000000000E-02  1.2597958435651E-01 -2.1435023103475E-02
     4  3.0000000000000E-02  1.8864214989481E-01 -3.1874323260439E-02
     5  4.0000000000000E-02  2.5091330978888E-01 -4.1981803332503E-02
     6  5.0000000000000E-02  3.1266469868425E-01 -5.1650229624898E-02
     7  6.0000000000000E-02  3.7376973932226E-01 -6.0775227083429E-02
     8  7.0000000000000E-02  4.3410407137474E-01 -6.9255953610549E-02
     9  8.0000000000000E-02  4.9354596832697E-01 -7.6995747925100E-02
    10  9.0000000000000E-02  5.5197674019175E-01 -8.3902746110527E-02
    11  1.0000000000000E-01  6.0928111992997E-01 -8.9890462229557E-02
    12  1.1000000000000E-01  6.6534763155980E-01 -9.4878328651628E-02
    13  1.2000000000000E-01  7.2006893805651E-01 -9.8792192040802E-02
    14  1.3000000000000E-01  7.7334216727761E-01 -1.0156476128480E-01
    15  1.4000000000000E-01  8.2506921429214E-01 -1.0313600400768E-01
    16  1.5000000000000E-01  8.7515701864813E-01 -1.0345348869741E-01
    17  1.6000000000000E-01  9.2351781527723E-01 -1.0247266989225E-01
    18  1.7000000000000E-01  9.7006935790922E-01 -1.0015711430398E-01
    19  1.8000000000000E-01  1.0147351140504E+00 -9.6478666208415E-02
    20  1.9000000000000E-01  1.0574444307680E+00 -9.1417550901102E-02
    21  2.0000000000000E-01  1.0981326707150E+00 -8.4962415495899E-02
    22  2.1000000000000E-01  1.1367413180283E+00 -7.7110306831839E-02
    23  2.2000000000000E-01  1.1732180539306E+00 -6.7866586746969E-02
    24  2.3000000000000E-01  1.2075168020686E+00 -5.7244785472279E-02
    25  2.4000000000000E-01  1.2395977438215E+00 -4.5266394390985E-02
    26  2.5000000000000E-01  1.2694273040088E+00 -3.1960599894748E-02
    27  2.6000000000000E-01  1.2969781076284E+00 -1.7363960544927E-02
    28  2.7000000000000E-01  1.3222289084419E+00 -1.5200302101543E-03
    29  2.8000000000000E-01  1.3451644904128E+00  1.5521069702475E-02
    30  2.9000000000000E-01  1.3657755431809E+00  3.3703125380063E-02
    31  3.0000000000000E-01  1.3840585129257E+00  5.2964349156865E-02
    32  3.1000000000000E-01  1.4000154301325E+00  7.3237937170671E-02
    33  3.2000000000000E-01  1.4136537159209E+00  9.4452661463778E-02
    34  3.3000000000000E-01  1.4249859687357E+00  1.1653349156138E-01
    35  3.4000000000000E-01  1.4340297333184E+00  1.3940224028945E-01
    36  3.5000000000000E-01  1.4408072539905E+00  1.6297822836306E-01
    37  3.6000000000000E-01  1.4453452143654E+00  1.8717896208703E-01
    38  3.7000000000000E-01  1.4476744656909E+00  2.1192081836655E-01
    39  3.8000000000000E-01  1.4478297460732E+00  2.3711973112695E-01
    40  3.9000000000000E-01  1.4458493928831E+00  2.6269187319177E-01
    41  4.0000000000000E-01  1.4417750506619E+00  2.8855432766674E-01
    42  4.1000000000000E-01  1.4356513768507E+00  3.1462574292570E-01
    43  4.2000000000000E-01  1.4275257476528E+00  3.4082696539365E-01
    44  4.3000000000000E-01  1.4174479663039E+00  3.6708164447082E-01
    45  4.4000000000000E-01  1.4054699759719E+00  3.9331680414078E-01
    46  4.5000000000000E-01  1.3916455794378E+00  4.1946337605398E-01
    47  4.6000000000000E-01  1.3760301676187E+00  4.4545668917381E-01
    48  4.7000000000000E-01  1.3586804588873E+00  4.7123691141480E-01
    49  4.8000000000000E-01  1.3396542510174E+00  4.9674943908885E-01
    50  4.9000000000000E-01  1.3190101874445E+00  5.2194523040359E-01
    51  5.0000000000000E-01  1.2968075393761E+00  5.4678107972361E-01
    52  5.1000000000000E-01  1.2731060051146E+00  5.7121982980769E-01
    53  5.2000000000000E-01  1.2479655277764E+00  5.9523051976876E-01
    54  5.3000000000000E-01  1.2214461323947E+00  6.1878846706535E-01
    55  5.4000000000000E-01  1.1936077831930E+00  6.4187528241752E-01
    56  5.5000000000000E-01  1.1645102616036E+00  6.6447881714430E-01
    57  5.6000000000000E-01  1.1342130653900E+00  6.8659304303614E-01
    58  5.7000000000000E-01  1.1027753290082E+00  7.0821786550159E-01
    59  5.8000000000000E-01  1.0702557651227E+00  7.2935887135615E-01
    60  5.9000000000000E-01  1.0367126269629E+00  7.5002701324654E-01
    61  6.0000000000000E-01  1.0022036909902E+00  7.7023823332257E-01
    62  6.1000000000000E-01  9.6678625912153E-01  7.9001302937186E-01
    63  6.2000000000000E-01  9.3051717954618E-01  8.0937596721823E-01
    64  6.3000000000000E-01  8.9345288496647E-01  8.2835514374351E-01
    65  6.4000000000000E-01  8.5564944689859E-01  8.4698160542179E-01
    66  6.5000000000000E-01  8.1716264448636E-01  8.6528872774786E-01
    67  6.6000000000000E-01  7.7804804611211E-01  8.8331156139352E-01
    68  6.7000000000000E-01  7.3836110193492E-01  9.0108615133084E-01
    69  6.8000000000000E-01  6.9815724535037E-01  9.1864883551699E-01
    70  6.9000000000000E-01  6.5749200124829E-01  9.3603553003470E-01
    71  7.0000000000000E-01  6.1642109884823E-01  9.5328100782463E-01
    72  7.1000000000000E-01  5.7500058681609E-01  9.7041817832496E-01
    73  7.2000000000000E-01  5.3328694831292E-01  9.8747737544835E-01
    74  7.3000000000000E-01  4.9133721359698E-01  1.0044856613737E+00
    75  7.4000000000000E-01  4.4920906779456E-01  1.0214661536090E+00
    76  7.5000000000000E-01  4.0696095147462E-01  1.0384373826899E+00
    77  7.6000000000000E-01  3.6465215170589E-01  1.0554126877167E+00
    78  7.7000000000000E-01  3.2234288134418E-01  1.0723996567010E+00
    79  7.8000000000000E-01  2.8009434439089E-01  1.0893996183893E+00
    80  7.9000000000000E-01  2.3796878538125E-01  1.1064071918640E+00
    81  8.0000000000000E-01  1.9602952090178E-01  1.1234098997841E+00
    82  8.1000000000000E-01  1.5434095149987E-01  1.1403878506301E+00
    83  8.2000000000000E-01  1.1296855243274E-01  1.1573134947580E+00
    84  8.3000000000000E-01  7.1978841907709E-02  1.1741514584555E+00
    85  8.4000000000000E-01  3.1439325688117E-02  1.1908584595249E+00
    86  8.5000000000000E-01 -8.5815828217123E-03  1.2073833072107E+00
    87  8.6000000000000E-01 -4.8014667645935E-02  1.2236669885351E+00
    88  8.7000000000000E-01 -8.6790040829132E-02  1.2396428423233E+00
    89  8.8000000000000E-01 -1.2483729864381E-01  1.2552368213896E+00
    90  8.9000000000000E-01 -1.6208570322419E-01  1.2703678425209E+00
    91  9.0000000000000E-01 -1.9846438915016E-01  1.2849482230557E+00
    92  9.1000000000000E-01 -2.3390259421669E-01  1.2988842020036E+00
    93  9.2000000000000E-01 -2.6832991333573E-01  1.3120765428100E+00
    94  9.3000000000000E-01 -3.0167657423402E-01  1.3244212140305E+00
    95  9.4000000000000E-01 -3.3387373333232E-01  1.3358101433711E+00
    96  9.5000000000000E-01 -3.6485378992336E-01  1.3461320397548E+00
    97  9.6000000000000E-01 -3.9455071650999E-01  1.3552732773257E+00
    98  9.7000000000000E-01 -4.2290040292365E-01  1.3631188345892E+00
    99  9.8000000000000E-01 -4.4984101161965E-01  1.3695532812231E+00
   100  9.9000000000000E-01 -4.7531334134194E-01  1.3744618044895E+00
   101  1.0000000000000E+00 -4.9926119616883E-01  1.3777312666359E+00
   102  1.0100000000000E+00 -5.2163175679377E-01  1.3792512841990E+00
   103  1.0200000000000E+00 -5.4237595076514E-01  1.3789153197259E+00
   104  1.0300000000000E+00 -5.6144881830619E-01  1.3766217761092E+00
   105  1.0400000000000E+00 -5.7880987026379E-01  1.3722750834949E+00
   106  1.0500000000000E+00 -5.9442343469250E-01  1.3657867685761E+00
   107  1.0600000000000E+00 -6.0825898857033E-01  1.3570764960240E+00
   108  1.0700000000000E+00 -6.2029147116488E-01  1.3460730718426E+00
   109  1.0800000000000E+00 -6.3050157562383E-01  1.3327153985591E+00
   110  1.0900000000000E+00 -6.3887601545111E-01  1.3169533723782E+00
   111  1.1000000000000E+00 -6.4540776265130E-01  1.2987487127442E+00
   112  1.1100000000000E+00 -6.5009625447640E-01  1.2780757151489E+00
   113  1.1200000000000E+00 -6.5294756589342E-01  1.2549219185206E+00
   114  1.1300000000000E+00 -6.5397454510345E-01  1.2292886790961E+00
   115  1.1400000000000E+00 -6.5319690968548E-01  1.2011916433366E+00
   116  1.1500000000000E+00 -6.5064130120514E-01  1.1706611131762E+00
   117  1.1600000000000E+00 -6.4634129642177E-01  1.1377422976930E+00
   118  1.1700000000000E+00 -6.4033737354044E-01  1.1024954461506E+00
   119  1.1800000000000E+00 -6.3267683229045E-01  1.0649958582838E+00
   120  1.1900000000000E+00 -6.2341366696032E-01  1.0253337686596E+00
   121  1.2000000000000E+00 -6.1260839188494E-01  9.8361410295970E-01
   122  1.2100000000000E+00 -6.0032781925242E-01  9.3995610505996E-01
   123  1.2200000000000E+00 -5.8664478948091E-01  8.9449283484608E-01
   124  1.2300000000000E+00 -5.7163785479937E-01  8.4737053777390E-01
   125  1.2400000000000E+00 -5.5539091705062E-01  7.9874788825404E-01
   126  1.2500000000000E+00 -5.3799282111729E-01  7.4879511001072E-01
   127  1.2600000000000E+00 -5.1953690574426E-01  6.9769297760879E-01
   128  1.2700000000000E+00 -5.0012051389533E-01  6.4563170436710E-01
   129  1.2800000000000E+00 -4.7984446513206E-01  5.9280972286199E-01
   130  1.2900000000000E+00 -4.5881249283394E-01  5.3943236516143E-01
   131  1.3000000000000E+00 -4.3713064939197E-01  4.8571045081660E-01
   132  1.3100000000000E+00 -4.1490668279553E-01  4.3185879145877E-01
   133  1.3200000000000E+00 -3.9224938829458E-01  3.7809462159835E-01
   134  1.3300000000000E+00 -3.6926793905155E-01  3.2463596589357E-01
   135  1.3400000000000E+00 -3.4607119989971E-01  2.7169995374419E-01
   136  1.3500000000000E+00 -3.2276702849231E-01  2.1950109255898E-01
   137  1.3600000000000E+00 -2.9946156825935E-01  1.6824951144442E-01
   138  1.3700000000000E+00 -2.7625853768591E-01  1.1814918736168E-01
   139  1.3800000000000E+00 -2.5325852048359E-01  6.9396165993417E-02
   140  1.3900000000000E+00 -2.3055826124688E-01  2.2176789651989E-02
   141  1.4000000000000E+00 -2.0824997103997E-01 -2.3334055925333E-02
   142  1.4100000000000E+00 -1.8642064758421E-01 -6.6974663077982E-02
   143  1.4200000000000E+00 -1.6515141877132E-01 -1.0859816457735E-01
   144  1.4300000000000E+00 -1.4451695114287E-01 -1.4807398645107E-01
   145  1.4400000000000E+00 -1.2458588723631E-01 -1.8528558961522E-01
   146  1.4500000000000E+00 -1.0542170643364E-01 -2.2012690350050E-01
   147  1.4600000000000E+00 -8.7082565990323E-02 -2.5250269583013E-01
   148  1.4700000000000E+00 -6.9620993223989E-02 -2.8232953406765E-01
   149  1.4800000000000E+00 -5.3083616022412E-02 -3.0953664008289E-01
   150  1.4900000000000E+00 -3.7510930902805E-02 -3.3406664297539E-01
   151  1.5000000000000E+00 -2.2937111340349E-02 -3.5587622181363E-01
   152  1.5100000000000E+00 -9.3898581322816E-03 -3.7493663329500E-01
   153  1.5200000000000E+00  3.1097452499290E-03 -3.9123424965345E-01
   154  1.5300000000000E+00  1.4546687604691E-02 -4.0476880254782E-01
   155  1.5400000000000E+00  2.4916555723934E-02 -4.1556873440381E-01
   156  1.5500000000000E+00  3.4198696640198E-02 -4.2360091925622E-01
   157  1.5600000000000E+00  4.2399745152388E-02 -4.2891806777062E-01
   158  1.5700000000000E+00  4.9554405201096E-02 -4.3166072239941E-01
   159  1.5800000000000E+00  5.5671871674883E-02 -4.3187662395841E-01
   160  1.5900000000000E+00  6.0777890873652E-02 -4.2966339853483E-01
   161  1.6000000000000E+00  6.4902151653968E-02 -4.2512615011236E-01
   162  1.6100000000000E+00  6.8080078143503E-02 -4.1838382739839E-01
   163  1.6200000000000E+00  7.0352245061263E-02 -4.0956756506968E-01
   164  1.6300000000000E+00  7.1764020986773E-02 -3.9881981794370E-01
   165  1.6400000000000E+00  7.2365163994319E-02 -3.8629335341544E-01
   166  1.6500000000000E+00  7.2209386420661E-02 -3.7215015683693E-01
   167  1.6600000000000E+00  7.1353891995313E-02 -3.5656025856520E-01
   168  1.6700000000000E+00  6.9858888793776E-02 -3.3970049204594E-01
   169  1.6800000000000E+00  6.7787081678295E-02 -3.2175319286835E-01
   170  1.6900000000000E+00  6.5203148065734E-02 -3.0290484921445E-01
   171  1.7000000000000E+00  6.2173201006568E-02 -2.8334471452982E-01
   172  1.7100000000000E+00  5.8764243671470E-02 -2.6326339355976E-01
   173  1.7200000000000E+00  5.5043619421685E-02 -2.4285141312072E-01
   174  1.7300000000000E+00  5.1078461685542E-02 -2.2229778911194E-01
   175  1.7400000000000E+00  4.6935147875618E-02 -2.0178860131315E-01
   176  1.7500000000000E+00  4.2678761559180E-02 -1.8150558746235E-01
   177  1.7600000000000E+00  3.8372567038648E-02 -1.6162476796191E-01
   178  1.7700000000000E+00  3.4077500409379E-02 -1.4231511232398E-01
   179  1.7800000000000E+00  2.9851682186707E-02 -1.2373726251151E-01
   180  1.7900000000000E+00  2.5749942996180E-02 -1.0604227697363E-01
   181  1.8000000000000E+00  2.1823420997891E-02 -8.9370611281924E-02
   182  1.8100000000000E+00  1.8119064057226E-02 -7.3850718117112E-02
   183  1.8200000000000E+00  1.4678269020139E-02 -5.9594238359668E-02
   184  1.8300000000000E+00  1.1537896000854E-02 -4.6700203599803E-02
   185  1.8400000000000E+00  8.7314986646573E-03 -3.5260194612938E-02
   186  1.8500000000000E+00  6.2869310053871E-03 -2.5349643329551E-02
   187  1.8600000000000E+00  4.2263364644274E-03 -1.7027992209122E-02
   188  1.8700000000000E+00  2.5659724297092E-03 -1.0338202851724E-02
   189  1.8800000000000E+00  1.3165573262065E-03 -5.3083176710256E-03
   190  1.8900000000000E+00  4.7754830802571E-04 -1.9283000594544E-03
   191  1.9000000000000E+00  7.0904522261362E-05 -2.8700088377170E-04
   192  1.9100000000000E+00 -1.2726102756246E-05  5.1569801692219E-05
   193  1.9200000000000E+00  3.2841291724330E-06 -1.3290813666443E-05
   194  1.93 -0.  0.
   195  1.94 -0.  0.
   196  1.95 -0.  0.
   197  1.96  0.  0.
   198  1.97  0.  0.
   199  1.98  0.  0.
   200  1.99  0.  0.
   201  2.00  0.  0.
   202  2.01  0.  0.
   203  2.02  0.  0.
   204  2.03  0.  0.
   205  2.04  0.  0.
   206  2.05  0.  0.
   207  2.06  0.  0.
   208  2.07  0.  0.
   209  2.08  0.  0.
   210  2.09  0.  0.
   211  2.10  0.  0.
   212  2.11  0.  0.
   213  2.12  0.  0.
   214  2.13  0.  0.
   215  2.14  0.  0.
   216  2.15  0.  0.
   217  2.16  0.  0.
   218  2.17  0.  0.
   219  2.18  0.  0.
   220  2.19  0.  0.
   221  2.20  0.  0.
   222  2.21  0.  0.
   223  2.22  0.  0.
   224  2.23  0.  0.
   225  2.24  0.  0.
   226  2.25  0.  0.
   227  2.26  0.  0.
   228  2.27  0.  0.
   229  2.28  0.  0.
   230  2.29  0.  0.
   231  2.30  0.  0.
   232  2.31  0.  0.
   233  2.32  0.  0.
   234  2.33  0.  0.
   235  2.34  0.  0.
   236  2.35  0.  0.
   237  2.36  0.  0.
   238  2.37  0.  0.
   239  2.38  0.  0.
   240  2.39  0.  0.
   241  2.40  0.  0.
   242  2.41  0.  0.
   243  2.42  0.  0.
   244  2.43  0.  0.
   245  2.44  0.  0.
   246  2.45  0.  0.
   247  2.46  0.  0.
   248  2.47  0.  0.
   249  2.48  0.  0.
   250  2.49  0.  0.
   251  2.50  0.  0.
   252  2.51  0.  0.
   253  2.52  0.  0.
   254  2.53  0.  0.
   255  2.54  0.  0.
   256  2.55  0.  0.
   257  2.56  0.  0.
   258  2.57  0.  0.
   259  2.58  0.  0.
   260  2.59  0.  0.
   261  2.60  0.  0.
   262  2.61  0.  0.
   263  2.62  0.  0.
   264  2.63  0.  0.
   265  2.64  0.  0.
   266  2.65  0.  0.
   267  2.66  0.  0.
   268  2.67  0.  0.
   269  2.68  0.  0.
   270  2.69  0.  0.
   271  2.70  0.  0.
   272  2.71  0.  0.
   273  2.72  0.  0.
   274  2.73  0.  0.
   275  2.74  0.  0.
   276  2.75  0.  0.
   277  2.76  0.  0.
   278  2.77  0.  0.
   279  2.78  0.  0.
   280  2.79  0.  0.
   281  2.80  0.  0.
   282  2.81  0.  0.
   283  2.82  0.  0.
   284  2.83  0.  0.
   285  2.84  0.  0.
   286  2.85  0.  0.
   287  2.86  0.  0.
   288  2.87  0.  0.
   289  2.88  0.  0.
   290  2.89  0.  0.
   291  2.90  0.  0.
   292  2.91  0.  0.
   293  2.92  0.  0.
   294  2.93  0.  0.
   295  2.94  0.  0.
   296  2.95  0.  0.
   297  2.96  0.  0.
   298  2.97  0.  0.
   299  2.98  0.  0.
   300  2.99  0.  0.
   301  3.00  0.  0.
   302  3.01  0.  0.
   303  3.02  0.  0.
   304  3.03  0.  0.
   305  3.04  0.  0.
   306  3.05  0.  0.
   307  3.06  0.  0.
   308  3.07  0.  0.
   309  3.08  0.  0.
   310  3.09  0.  0.
   311  3.10  0.  0.
   312  3.11  0.  0.
   313  3.12  0.  0.
   314  3.13  0.  0.
   315  3.14  0.  0.
   316  3.15  0.  0.
   317  3.16  0.  0.
   318  3.17  0.  0.
   319  3.18  0.  0.
   320  3.19  0.  0.
   321  3.20  0.  0.
   322  3.21  0.  0.
   323  3.22  0.  0.
   324  3.23  0.  0.
   325  3.24  0.  0.
   326  3.25  0.  0.
   327  3.26  0.  0.
   328  3.27  0.  0.
   329  3.28  0.  0.
   330  3.29  0.  0.
   331  3.30  0.  0.
   332  3.31  0.  0.
   333  3.32  0.  0.
   334  3.33  0.  0.
   335  3.34  0.  0.
   336  3.35  0.  0.
   337  3.36  0.  0.
   338  3.37  0.  0.
   339  3.38  0.  0.
   340  3.39  0.  0.
   341  3.40  0.  0.
   342  3.41  0.  0.
   343  3.42  0.  0.
   344  3.43  0.  0.
   345  3.44  0.  0.
   346  3.45  0.  0.
   347  3.46  0.  0.
   348  3.47  0.  0.
   349  3.48  0.  0.
   350  3.49  0.  0.
   351  3.50  0.  0.
   352  3.51  0.  0.
   353  3.52  0.  0.
   354  3.53  0.  0.
   355  3.54  0.  0.
   356  3.55  0.  0.
   357  3.56  0.  0.
   358  3.57  0.  0.
   359  3.58  0.  0.
   360  3.59  0.  0.
   361  3.60  0.  0.
   362  3.61  0.  0.
   363  3.62  0.  0.
   364  3.63  0.  0.
   365  3.64  0.  0.
   366  3.65  0.  0.
   367  3.66  0.  0.
   368  3.67  0.  0.
   369  3.68  0.  0.
   370  3.69  0.  0.
   371  3.70  0.  0.
   372  3.71  0.  0.
   373  3.72  0.  0.
   374  3.73  0.  0.
   375  3.74  0.  0.
   376  3.75  0.  0.
   377  3.76  0.  0.
   378  3.77  0.  0.
   379  3.78  0.  0.
   380  3.79  0.  0.
   381  3.80  0.  0.
   382  3.81  0.  0.
   383  3.82  0.  0.
   384  3.83  0.  0.
   385  3.84  0.  0.
   386  3.85  0.  0.
   387  3.86  0.  0.
   388  3.87  0.  0.
   389  3.88  0.  0.
   390  3.89  0.  0.
   391  3.90  0.  0.
   392  3.91  0.  0.
   393  3.92  0.  0.
   394  3.93  0.  0.
   395  3.94  0.  0.
   396  3.95  0.  0.
   397  3.96  0.  0.
   398  3.97  0.  0.
   399  3.98  0.  0.
   400  3.99  0.  0.
   401  4.00  0.  0.
   402  4.01  0.  0.
   403  4.02  0.  0.
   404  4.03  0.  0.
   405  4.04  0.  0.
   406  4.05  0.  0.
   407  4.06  0.  0.
   408  4.07  0.  0.
   409  4.08  0.  0.
   410  4.09  0.  0.
   411  4.10  0.  0.
   412  4.11  0.  0.
   413  4.12  0.  0.
   414  4.13  0.  0.
   415  4.14  0.  0.
   416  4.15  0.  0.
   417  4.16  0.  0.
   418  4.17  0.  0.
   419  4.18  0.  0.
   420  4.19  0.  0.
   421  4.20  0.  0.
   422  4.21  0.  0.
   423  4.22  0.  0.
   424  4.23  0.  0.
   425  4.24  0.  0.
   426  4.25  0.  0.
   427  4.26  0.  0.
   428  4.27  0.  0.
   429  4.28  0.  0.
   430  4.29  0.  0.
   431  4.30  0.  0.
   432  4.31  0.  0.
   433  4.32  0.  0.
   434  4.33  0.  0.
   435  4.34  0.  0.
   436  4.35  0.  0.
   437  4.36  0.  0.
   438  4.37  0.  0.
   439  4.38  0.  0.
   440  4.39  0.  0.
   441  4.40  0.  0.
   442  4.41  0.  0.
   443  4.42  0.  0.
   444  4.43  0.  0.
   445  4.44  0.  0.
   446  4.45  0.  0.
   447  4.46  0.  0.
   448  4.47  0.  0.
   449  4.48  0.  0.
   450  4.49  0.  0.
   451  4.50  0.  0.
   452  4.51  0.  0.
   453  4.52  0.  0.
   454  4.53  0.  0.
   455  4.54  0.  0.
   456  4.55  0.  0.
   457  4.56  0.  0.
   458  4.57  0.  0.
   459  4.58  0.  0.
   460  4.59  0.  0.
   461  4.60  0.  0.
   462  4.61  0.  0.
   463  4.62  0.  0.
   464  4.63  0.  0.
   465  4.64  0.  0.
   466  4.65  0.  0.
   467  4.66  0.  0.
   468  4.67  0.  0.
   469  4.68  0.  0.
   470  4.69  0.  0.
   471  4.70  0.  0.
   472  4.71  0.  0.
   473  4.72  0.  0.
   474  4.73  0.  0.
   475  4.74  0.  0.
   476  4.75  0.  0.
   477  4.76  0.  0.
   478  4.77  0.  0.
   479  4.78  0.  0.
   480  4.79  0.  0.
   481  4.80  0.  0.
   482  4.81  0.  0.
   483  4.82  0.  0.
   484  4.83  0.  0.
   485  4.84  0.  0.
   486  4.85  0.  0.
   487  4.86  0.  0.
   488  4.87  0.  0.
   489  4.88  0.  0.
   490  4.89  0.  0.
   491  4.90  0.  0.
   492  4.91  0.  0.
   493  4.92  0.  0.
   494  4.93  0.  0.
   495  4.94  0.  0.
   496  4.95  0.  0.
   497  4.96  0.  0.
   498  4.97  0.  0.
   499  4.98  0.  0.
   500  4.99  0.  0.
   501  5.00  0.  0.
   502  5.01  0.  0.
   503  5.02  0.  0.
   504  5.03  0.  0.
   505  5.04  0.  0.
   506  5.05  0.  0.
   507  5.06  0.  0.
   508  5.07  0.  0.
   509  5.08  0.  0.
   510  5.09  0.  0.
   511  5.10  0.  0.
   512  5.11  0.  0.
   513  5.12  0.  0.
   514  5.13  0.  0.
   515  5.14  0.  0.
   516  5.15  0.  0.
   517  5.16  0.  0.
   518  5.17  0.  0.
   519  5.18  0.  0.
   520  5.19  0.  0.
   521  5.20  0.  0.
   522  5.21  0.  0.
   523  5.22  0.  0.
   524  5.23  0.  0.
   525  5.24  0.  0.
   526  5.25  0.  0.
   527  5.26  0.  0.
   528  5.27  0.  0.
   529  5.28  0.  0.
   530  5.29  0.  0.
   531  5.30  0.  0.
   532  5.31  0.  0.
   533  5.32  0.  0.
   534  5.33  0.  0.
   535  5.34  0.  0.
   536  5.35  0.  0.
   537  5.36  0.  0.
   538  5.37  0.  0.
   539  5.38  0.  0.
   540  5.39  0.  0.
   541  5.40  0.  0.
   542  5.41  0.  0.
   543  5.42  0.  0.
   544  5.43  0.  0.
   545  5.44  0.  0.
   546  5.45  0.  0.
   547  5.46  0.  0.
   548  5.47  0.  0.
   549  5.48  0.  0.
   550  5.49  0.  0.
   551  5.50  0.  0.
   552  5.51  0.  0.
   553  5.52  0.  0.
   554  5.53  0.  0.
   555  5.54  0.  0.
   556  5.55  0.  0.
   557  5.56  0.  0.
   558  5.57  0.  0.
   559  5.58  0.  0.
   560  5.59  0.  0.
   561  5.60  0.  0.
   562  5.61  0.  0.
   563  5.62  0.  0.
   564  5.63  0.  0.
   565  5.64  0.  0.
   566  5.65  0.  0.
   567  5.66  0.  0.
   568  5.67  0.  0.
   569  5.68  0.  0.
   570  5.69  0.  0.
   571  5.70  0.  0.
   572  5.71  0.  0.
   573  5.72  0.  0.
   574  5.73  0.  0.
   575  5.74  0.  0.
   576  5.75  0.  0.
   577  5.76  0.  0.
   578  5.77  0.  0.
   579  5.78  0.  0.
   580  5.79  0.  0.
   581  5.80  0.  0.
   582  5.81  0.  0.
   583  5.82  0.  0.
   584  5.83  0.  0.
   585  5.84  0.  0.
   586  5.85  0.  0.
   587  5.86  0.  0.
   588  5.87  0.  0.
   589  5.88  0.  0.
   590  5.89  0.  0.
   591  5.90  0.  0.
   592  5.91  0.  0.
   593  5.92  0.  0.
   594  5.93  0.  0.
   595  5.94  0.  0.
   596  5.95  0.  0.
   597  5.96  0.  0.
   598  5.97  0.  0.
   599  5.98  0.  0.
   600  5.99  0.  0.
   1                         4.6126169323009E+00 -3.3774041739148E-01
     1  0.0000000000000E+00  3.0874164336225E-10  3.9239123061918E-10
     2  1.0000000000000E-02  1.6385926819421E-03  6.3812581053563E-04
     3  2.0000000000000E-02  6.5472845751309E-03  2.5484489732441E-03
     4  3.0000000000000E-02  1.4704849028713E-02  5.7188349101331E-03
     5  4.0000000000000E-02  2.6076014152902E-02  1.0129153211066E-02
     6  5.0000000000000E-02  4.0611621045535E-02  1.5751417733467E-02
     7  6.0000000000000E-02  5.8248844180951E-02  2.2549981287410E-02
     8  7.0000000000000E-02  7.8911472840737E-02  3.0481783465519E-02
     9  8.0000000000000E-02  1.0251025215718E-01  3.9496649784715E-02
    10  9.0000000000000E-02  1.2894328203962E-01  4.9537639929139E-02
    11  1.0000000000000E-01  1.5809647196368E-01  6.0541442522969E-02
    12  1.1000000000000E-01  1.8984404932458E-01  7.2438813521584E-02
    13  1.2000000000000E-01  2.2404911879076E-01  8.5155054992226E-02
    14  1.3000000000000E-01  2.6056426984349E-01  9.8610530762658E-02
    15  1.4000000000000E-01  2.9923222945445E-01  1.1272121515233E-01
    16  1.5000000000000E-01  3.3988655663673E-01  1.2739927076525E-01
    17  1.6000000000000E-01  3.8235237540756E-01  1.4255365112062E-01
    18  1.7000000000000E-01  4.2644714252328E-01  1.5809072372702E-01
    19  1.8000000000000E-01  4.7198144619073E-01  1.7391490907020E-01
    20  1.9000000000000E-01  5.1875983182446E-01  1.8992933088399E-01
    21  2.0000000000000E-01  5.6658165080643E-01  2.0603647301015E-01
    22  2.1000000000000E-01  6.1524192811573E-01  2.2213883812517E-01
    23  2.2000000000000E-01  6.6453224462961E-01  2.3813960362200E-01
    24  2.3000000000000E-01  7.1424162985437E-01  2.5394326998059E-01
    25  2.4000000000000E-01  7.6415746082623E-01  2.6945629704401E-01
    26  2.5000000000000E-01  8.1406636292650E-01  2.8458772373477E-01
    27  2.6000000000000E-01  8.6375510838377E-01  2.9924976689897E-01
    28  2.7000000000000E-01  9.1301150828698E-01  3.1335839515165E-01
    29  2.8000000000000E-01  9.6162529400657E-01  3.2683387381430E-01
    30  2.9000000000000E-01  1.0093889840167E+00  3.3960127728292E-01
    31  3.0000000000000E-01  1.0560987322279E+00  3.5159096543976E-01
    32  3.1000000000000E-01  1.1015551540757E+00  3.6273902102226E-01
    33  3.2000000000000E-01  1.1455641267671E+00  3.7298764518556E-01
    34  3.3000000000000E-01  1.1879375602605E+00  3.8228550883772E-01
    35  3.4000000000000E-01  1.2284941357431E+00  3.9058805768665E-01
    36  3.5000000000000E-01  1.2670600085777E+00  3.9785776931121E-01
    37  3.6000000000000E-01  1.3034694729076E+00  4.0406436095339E-01
    38  3.7000000000000E-01  1.3375655853412E+00  4.0918494711963E-01
    39  3.8000000000000E-01  1.3692007453795E+00  4.1320414647536E-01
    40  3.9000000000000E-01  1.3982372304988E+00  4.1611413791183E-01
    41  4.0000000000000E-01  1.4245476840617E+00  4.1791466605811E-01
    42  4.1000000000000E-01  1.4480155544911E+00  4.1861299689667E-01
    43  4.2000000000000E-01  1.4685354844085E+00  4.1822382451846E-01
    44  4.3000000000000E-01  1.4860136487097E+00  4.1676913041640E-01
    45  4.4000000000000E-01  1.5003680408164E+00  4.1427799706399E-01
    46  4.5000000000000E-01  1.5115287066146E+00  4.1078637785372E-01
    47  4.6000000000000E-01  1.5194379258505E+00  4.0633682577623E-01
    48  4.7000000000000E-01  1.5240503410191E+00  4.0097818350258E-01
    49  4.8000000000000E-01  1.5253330340296E+00  3.9476523778632E-01
    50  4.9000000000000E-01  1.5232655511826E+00  3.8775834132725E-01
    51  5.0000000000000E-01  1.5178398772247E+00  3.8002300543275E-01
    52  5.1000000000000E-01  1.5090603594773E+00  3.7162946697418E-01
    53  5.2000000000000E-01  1.4969435832469E+00  3.6265223326319E-01
    54  5.3000000000000E-01  1.4815181999276E+00  3.5316960856556E-01
    55  5.4000000000000E-01  1.4628247093936E+00  3.4326320602784E-01
    56  5.5000000000000E-01  1.4409151984525E+00  3.3301744881357E-01
    57  5.6000000000000E-01  1.4158530372885E+00  3.2251906423244E-01
    58  5.7000000000000E-01  1.3877125359669E+00  3.1185657459714E-01
    59  5.8000000000000E-01  1.3565785631963E+00  3.0111978846002E-01
    60  5.9000000000000E-01  1.3225461296570E+00  2.9039929576618E-01
    61  6.0000000000000E-01  1.2857199382938E+00  2.7978597031265E-01
    62  6.1000000000000E-01  1.2462139040514E+00  2.6937048272696E-01
    63  6.2000000000000E-01  1.2041506455884E+00  2.5924282697484E-01
    64  6.3000000000000E-01  1.1596609515521E+00  2.4949186317777E-01
    65  6.4000000000000E-01  1.1128832240232E+00  2.4020487927103E-01
    66  6.5000000000000E-01  1.0639629017554E+00  2.3146717376221E-01
    67  6.6000000000000E-01  1.0130518658319E+00  2.2336166156477E-01
    68  6.7000000000000E-01  9.6030783034760E-01  2.1596850458184E-01
    69  6.8000000000000E-01  9.0589372070002E-01  2.0936476840844E-01
    70  6.9000000000000E-01  8.4997704202968E-01  2.0362410620535E-01
    71  7.0000000000000E-01  7.9272924030470E-01  1.9881647048337E-01
    72  7.1000000000000E-01  7.3432505848256E-01  1.9500785322165E-01
    73  7.2000000000000E-01  6.7494189011487E-01  1.9226005443540E-01
    74  7.3000000000000E-01  6.1475913268513E-01  1.9063047900793E-01
    75  7.4000000000000E-01  5.5395754288793E-01  1.9017196131418E-01
    76  7.5000000000000E-01  4.9271859597060E-01  1.9093261689071E-01
    77  7.6000000000000E-01  4.3122385116768E-01  1.9295572015358E-01
    78  7.7000000000000E-01  3.6965432516445E-01  1.9627960693413E-01
    79  7.8000000000000E-01  3.0818987543010E-01  2.0093760039467E-01
    80  7.9000000000000E-01  2.4700859516470E-01  2.0695795870651E-01
    81  8.0000000000000E-01  1.8628622150779E-01  2.1436384272023E-01
    82  8.1000000000000E-01  1.2619555856153E-01  2.2317330173788E-01
    83  8.2000000000000E-01  6.6905916687887E-02  2.3339927540741E-01
    84  8.3000000000000E-01  8.5825694491352E-03  2.4504960970413E-01
    85  8.4000000000000E-01 -4.8613770526281E-02  2.5812708494152E-01
    86  8.5000000000000E-01 -1.0452745555385E-01  2.7262945376564E-01
    87  8.6000000000000E-01 -1.5900838565932E-01  2.8854948713232E-01
    88  8.7000000000000E-01 -2.1191246905584E-01  3.0587502634517E-01
    89  8.8000000000000E-01 -2.6310205935663E-01  3.2458903934177E-01
    90  8.9000000000000E-01 -3.1244636861204E-01  3.4466967955678E-01
    91  9.0000000000000E-01 -3.5982185532065E-01  3.6609034585974E-01
    92  9.1000000000000E-01 -4.0511258661881E-01  3.8881974226073E-01
    93  9.2000000000000E-01 -4.4821057390432E-01  4.1282193629671E-01
    94  9.3000000000000E-01 -4.8901608119685E-01  4.3805641525178E-01
    95  9.4000000000000E-01 -5.2743790558091E-01  4.6447813962213E-01
    96  9.5000000000000E-01 -5.6339362911749E-01  4.9203759350937E-01
    97  9.6000000000000E-01 -5.9680984164825E-01  5.2068083190807E-01
    98  9.7000000000000E-01 -6.2762233395218E-01  5.5034952514336E-01
    99  9.8000000000000E-01 -6.5577626074948E-01  5.8098100100639E-01
   100  9.9000000000000E-01 -6.8122627308208E-01  6.1250828542667E-01
   101  1.0000000000000E+00 -7.0393661963532E-01  6.4486014280527E-01
   102  1.0100000000000E+00 -7.2388121660143E-01  6.7796111740980E-01
   103  1.0200000000000E+00 -7.4104368572426E-01  7.1173157749331E-01
   104  1.0300000000000E+00 -7.5541736020540E-01  7.4608776404557E-01
   105  1.0400000000000E+00 -7.6700525819720E-01  7.8094184630791E-01
   106  1.0500000000000E+00 -7.7582002365678E-01  8.1620198638283E-01