Cd    ONCVPSP-4.0.1  r_core=   2.28653   2.19276   2.30025
     48.0000     20.0000      230118    zatom,zion,pspd
     8       2   2     4   600     0    pspcod,pspxc,lmax,lloc,mmax,r2well
  5.99000000  6.00000000  0.00000000    rchrg fchrg qchrg
     2     2     2     0     0    nproj
     1     1           extension_switch
   0                         2.7548427850994E+00 -1.8822577686336E-01
     1  0.0000000000000E+00 -4.1095460368012E-12  1.7456619483269E-11
     2  1.0000000000000E-02  6.0273402359817E-02  9.3797820056933E-03
     3  2.0000000000000E-02  1.2043848284706E-01  1.8775074597085E-02
     4  3.0000000000000E-02  1.8038715036540E-01  2.8201287524689E-02
     5  4.0000000000000E-02  2.4001177484846E-01  3.7673629530641E-02
     6  5.0000000000000E-02  2.9920541646930E-01  4.7207009495103E-02
     7  6.0000000000000E-02  3.5786205328627E-01  5.6815939550965E-02
     8  7.0000000000000E-02  4.1587680680881E-01  6.6514440802467E-02
     9  8.0000000000000E-02  4.7314616497083E-01  7.6315952265852E-02
    10  9.0000000000000E-02  5.2956820200453E-01  8.6233243628662E-02
    11  1.0000000000000E-01  5.8504279471377E-01  9.6278332398586E-02
    12  1.1000000000000E-01  6.3947183465295E-01  1.0646240598353E-01
    13  1.2000000000000E-01  6.9275943572599E-01  1.1679574921124E-01
    14  1.3000000000000E-01  7.4481213672904E-01  1.2728767776057E-01
    15  1.4000000000000E-01  7.9553909837052E-01  1.3794647793641E-01
    16  1.5000000000000E-01  8.4485229431394E-01  1.4877935317803E-01
    17  1.6000000000000E-01  8.9266669580054E-01  1.5979237764472E-01
    18  1.7000000000000E-01  9.3890044942253E-01  1.7099045717546E-01
    19  1.8000000000000E-01  9.8347504763161E-01  1.8237729786899E-01
    20  1.9000000000000E-01  1.0263154915827E+00  1.9395538247955E-01
    21  2.0000000000000E-01  1.0673504459295E+00  2.0572595477033E-01
    22  2.1000000000000E-01  1.1065123852040E+00  2.1768901191292E-01
    23  2.2000000000000E-01  1.1437377314332E+00  2.2984330496623E-01
    24  2.3000000000000E-01  1.1789669826609E+00  2.4218634741326E-01
    25  2.4000000000000E-01  1.2121448320667E+00  2.5471443167955E-01
    26  2.5000000000000E-01  1.2432202773922E+00  2.6742265350210E-01
    27  2.6000000000000E-01  1.2721467204067E+00  2.8030494396409E-01
    28  2.7000000000000E-01  1.2988820561674E+00  2.9335410895818E-01
    29  2.8000000000000E-01  1.3233887518528E+00  3.0656187578990E-01
    30  2.9000000000000E-01  1.3456339149696E+00  3.1991894658341E-01
    31  3.0000000000000E-01  1.3655893507623E+00  3.3341505810536E-01
    32  3.1000000000000E-01  1.3832316086744E+00  3.4703904757733E-01
    33  3.2000000000000E-01  1.3985420177420E+00  3.6077892400651E-01
    34  3.3000000000000E-01  1.4115067108223E+00  3.7462194452547E-01
    35  3.4000000000000E-01  1.4221166375902E+00  3.8855469519675E-01
    36  3.5000000000000E-01  1.4303675662604E+00  4.0256317570706E-01
    37  3.6000000000000E-01  1.4362600740241E+00  4.1663288734815E-01
    38  3.7000000000000E-01  1.4397995262143E+00  4.3074892365857E-01
    39  3.8000000000000E-01  1.4409960442447E+00  4.4489606308089E-01
    40  3.9000000000000E-01  1.4398644623953E+00  4.5905886297576E-01
    41  4.0000000000000E-01  1.4364242735454E+00  4.7322175432273E-01
    42  4.1000000000000E-01  1.4306995639876E+00  4.8736913643421E-01
    43  4.2000000000000E-01  1.4227189374798E+00  5.0148547100717E-01
    44  4.3000000000000E-01  1.4125154287270E+00  5.1555537484242E-01
    45  4.4000000000000E-01  1.4001264065093E+00  5.2956371057019E-01
    46  4.5000000000000E-01  1.3855934667028E+00  5.4349567473428E-01
    47  4.6000000000000E-01  1.3689623154672E+00  5.5733688260596E-01
    48  4.7000000000000E-01  1.3502826429042E+00  5.7107344912165E-01
    49  4.8000000000000E-01  1.3296079875130E+00  5.8469206536567E-01
    50  4.9000000000000E-01  1.3069955918008E+00  5.9818007005129E-01
    51  5.0000000000000E-01  1.2825062494293E+00  6.1152551548874E-01
    52  5.1000000000000E-01  1.2562041443018E+00  6.2471722756829E-01
    53  5.2000000000000E-01  1.2281566820229E+00  6.3774485932956E-01
    54  5.3000000000000E-01  1.1984343141826E+00  6.5059893773400E-01
    55  5.4000000000000E-01  1.1671103559392E+00  6.6327090330705E-01
    56  5.5000000000000E-01  1.1342607973965E+00  6.7575314236723E-01
    57  5.6000000000000E-01  1.0999641092887E+00  6.8803901161412E-01
    58  5.7000000000000E-01  1.0643010435052E+00  7.0012285490156E-01
    59  5.8000000000000E-01  1.0273544290020E+00  7.1200001208025E-01
    60  5.9000000000000E-01  9.8920896366364E-01  7.2366681985123E-01
    61  6.0000000000000E-01  9.4995100268887E-01  7.3512060463001E-01
    62  6.1000000000000E-01  9.0966834408752E-01  7.4635966748016E-01
    63  6.2000000000000E-01  8.6845001188324E-01  7.5738326123256E-01
    64  6.3000000000000E-01  8.2638603762489E-01  7.6819155996471E-01
    65  6.4000000000000E-01  7.8356724081479E-01  7.7878562106987E-01
    66  6.5000000000000E-01  7.4008500886502E-01  7.8916734020102E-01
    67  6.6000000000000E-01  6.9603107719463E-01  7.9933939942684E-01
    68  6.7000000000000E-01  6.5149731007986E-01  8.0930520898697E-01
    69  6.8000000000000E-01  6.0657548286629E-01  8.1906884308129E-01
    70  6.9000000000000E-01  5.6135706614748E-01  8.2863497017161E-01
    71  7.0000000000000E-01  5.1593301250697E-01  8.3800877831533E-01
    72  7.1000000000000E-01  4.7039354641191E-01  8.4719589608644E-01
    73  7.2000000000000E-01  4.2482795783485E-01  8.5620230967262E-01
    74  7.3000000000000E-01  3.7932440016719E-01  8.6503427676474E-01
    75  7.4000000000000E-01  3.3396969297234E-01  8.7369823787880E-01
    76  7.5000000000000E-01  2.8884913010918E-01  8.8220072576916E-01
    77  7.6000000000000E-01  2.4404629373730E-01  8.9054827360543E-01
    78  7.7000000000000E-01  1.9964287469416E-01  8.9874732259446E-01
    79  7.8000000000000E-01  1.5571849971160E-01  9.0680412973205E-01
    80  7.9000000000000E-01  1.1235056591427E-01  9.1472467636799E-01
    81  8.0000000000000E-01  6.9614083016443E-02  9.2251457826082E-01
    82  8.1000000000000E-01  2.7581523606066E-02  9.3017899778737E-01
    83  8.2000000000000E-01 -1.3677318124521E-02  9.3772255895537E-01
    84  8.3000000000000E-01 -5.4095458871709E-02  9.4514926584577E-01
    85  8.4000000000000E-01 -9.3608849639873E-02  9.5246242508550E-01
    86  8.5000000000000E-01 -1.3215648982134E-01  9.5966457292064E-01
    87  8.6000000000000E-01 -1.6968053170492E-01  9.6675740742545E-01
    88  8.7000000000000E-01 -2.0612637521497E-01  9.7374172634425E-01
    89  8.8000000000000E-01 -2.4144275271719E-01  9.8061737102080E-01
    90  8.9000000000000E-01 -2.7558180376239E-01  9.8738317682501E-01
    91  9.0000000000000E-01 -3.0849913967464E-01  9.9403693043871E-01
    92  9.1000000000000E-01 -3.4015389792488E-01  1.0005753343119E+00
    93  9.2000000000000E-01 -3.7050878626652E-01  1.0069939785490E+00
    94  9.3000000000000E-01 -3.9953011664409E-01  1.0132873204302E+00
    95  9.4000000000000E-01 -4.2718782891992E-01  1.0194486717205E+00
    96  9.5000000000000E-01 -4.5345550449804E-01  1.0254701938599E+00
    97  9.6000000000000E-01 -4.7831036995672E-01  1.0313429010792E+00
    98  9.7000000000000E-01 -5.0173329083349E-01  1.0370566714243E+00
    99  9.8000000000000E-01 -5.2370875573682E-01  1.0426002656237E+00
   100  9.9000000000000E-01 -5.4422485098877E-01  1.0479613536798E+00
   101  1.0000000000000E+00 -5.6327322603071E-01  1.0531265490123E+00
   102  1.0100000000000E+00 -5.8084904985125E-01  1.0580814499380E+00
   103  1.0200000000000E+00 -5.9695095872070E-01  1.0628106882219E+00
   104  1.0300000000000E+00 -6.1158099553959E-01  1.0672979843964E+00
   105  1.0400000000000E+00 -6.2474454113081E-01  1.0715262095023E+00
   106  1.0500000000000E+00 -6.3645023782438E-01  1.0754774528755E+00
   107  1.0600000000000E+00 -6.4670990570185E-01  1.0791330955697E+00
   108  1.0700000000000E+00 -6.5553845188302E-01  1.0824738889788E+00
   109  1.0800000000000E+00 -6.6295377325155E-01  1.0854800382057E+00
   110  1.0900000000000E+00 -6.6897665302727E-01  1.0881312897011E+00
   111  1.1000000000000E+00 -6.7363065160295E-01  1.0904070226914E+00
   112  1.1100000000000E+00 -6.7694199207032E-01  1.0922863439027E+00
   113  1.1200000000000E+00 -6.7893944086537E-01  1.0937481850906E+00
   114  1.1300000000000E+00 -6.7965418396617E-01  1.0947714028865E+00
   115  1.1400000000000E+00 -6.7911969907752E-01  1.0953348804829E+00
   116  1.1500000000000E+00 -6.7737162423547E-01  1.0954176306917E+00
   117  1.1600000000000E+00 -6.7444762326213E-01  1.0949988999295E+00
   118  1.1700000000000E+00 -6.7038724849613E-01  1.0940582727077E+00
   119  1.1800000000000E+00 -6.6523180121734E-01  1.0925757762318E+00
   120  1.1900000000000E+00 -6.5902419017630E-01  1.0905319847476E+00
   121  1.2000000000000E+00 -6.5180878862852E-01  1.0879081233073E+00
   122  1.2100000000000E+00 -6.4363129026241E-01  1.0846861706670E+00
   123  1.2200000000000E+00 -6.3453856439667E-01  1.0808489610704E+00
   124  1.2300000000000E+00 -6.2457851080882E-01  1.0763802847176E+00
   125  1.2400000000000E+00 -6.1379991454112E-01  1.0712649867657E+00
   126  1.2500000000000E+00 -6.0225230101397E-01  1.0654890647553E+00
   127  1.2600000000000E+00 -5.8998579175978E-01  1.0590397644081E+00
   128  1.2700000000000E+00 -5.7705096107230E-01  1.0519056737909E+00
   129  1.2800000000000E+00 -5.6349869384826E-01  1.0440768158913E+00
   130  1.2900000000000E+00 -5.4938004487923E-01  1.0355447397019E+00
   131  1.3000000000000E+00 -5.3474609983273E-01  1.0263026099578E+00
   132  1.3100000000000E+00 -5.1964783814238E-01  1.0163452957220E+00
   133  1.3200000000000E+00 -5.0413599800785E-01  1.0056694580566E+00
   134  1.3300000000000E+00 -4.8826094368658E-01  9.9427363706456E-01
   135  1.3400000000000E+00 -4.7207253524030E-01  9.8215833862516E-01
   136  1.3500000000000E+00 -4.5562000088167E-01  9.6932612118385E-01
   137  1.3600000000000E+00 -4.3895181204831E-01  9.5578168299231E-01
   138  1.3700000000000E+00 -4.2211556131476E-01  9.4153195022275E-01
   139  1.3800000000000E+00 -4.0515784323665E-01  9.2658616640539E-01
   140  1.3900000000000E+00 -3.8812413820598E-01  9.1095598365936E-01
   141  1.4000000000000E+00 -3.7105869938195E-01  8.9465555620131E-01
   142  1.4100000000000E+00 -3.5400444274840E-01  8.7770163662642E-01
   143  1.4200000000000E+00 -3.3700284033647E-01  8.6011367546119E-01
   144  1.4300000000000E+00 -3.2009381663989E-01  8.4191392448557E-01
   145  1.4400000000000E+00 -3.0331564823996E-01  8.2312754431610E-01
   146  1.4500000000000E+00 -2.8670486664856E-01  8.0378271672894E-01
   147  1.4600000000000E+00 -2.7029616436932E-01  7.8391076218367E-01
   148  1.4700000000000E+00 -2.5412230417075E-01  7.6354626298589E-01
   149  1.4800000000000E+00 -2.3821403155917E-01  7.4272719249724E-01
   150  1.4900000000000E+00 -2.2259999043532E-01  7.2149505076841E-01
   151  1.5000000000000E+00 -2.0730664191450E-01  6.9989500693101E-01
   152  1.5100000000000E+00 -1.9235818628849E-01  6.7797604864199E-01
   153  1.5200000000000E+00 -1.7777648810542E-01  6.5579113882558E-01
   154  1.5300000000000E+00 -1.6358100434373E-01  6.3339737990740E-01
   155  1.5400000000000E+00 -1.4978871565659E-01  6.1085618567975E-01
   156  1.5500000000000E+00 -1.3641406067703E-01  5.8823346076532E-01
   157  1.5600000000000E+00 -1.2346887435594E-01  5.6559978059019E-01
   158  1.5700000000000E+00 -1.1096232385645E-01  5.4303061763534E-01
   159  1.5800000000000E+00 -9.8901443541007E-02  5.2060208245514E-01
   160  1.5900000000000E+00 -8.7292466924465E-02  4.9838107968912E-01
   161  1.6000000000000E+00 -7.6140544298383E-02  4.7642812822268E-01
   162  1.6100000000000E+00 -6.5449664539822E-02  4.5479847116370E-01
   163  1.6200000000000E+00 -5.5222709081554E-02  4.3354215933339E-01
   164  1.6300000000000E+00 -4.5461493222131E-02  4.1270422342241E-01
   165  1.6400000000000E+00 -3.6166808203015E-02  3.9232483255896E-01
   166  1.6500000000000E+00 -2.7338461155172E-02  3.7243946182476E-01
   167  1.6600000000000E+00 -1.8975313297994E-02  3.5307906598423E-01
   168  1.6700000000000E+00 -1.1075316486947E-02  3.3427025895701E-01
   169  1.6800000000000E+00 -3.6355482166106E-03  3.1603549851844E-01
   170  1.6900000000000E+00  3.3477548049281E-03  2.9839327567034E-01
   171  1.7000000000000E+00  9.8791643862945E-03  2.8135830808554E-01
   172  1.7100000000000E+00  1.5964029756647E-02  2.6494173699496E-01
   173  1.7200000000000E+00  2.1608447506349E-02  2.4915132685577E-01
   174  1.7300000000000E+00  2.6819232423390E-02  2.3399166711319E-01
   175  1.7400000000000E+00  3.1603889081244E-02  2.1946437534768E-01
   176  1.7500000000000E+00  3.5970584032111E-02  2.0556830108311E-01
   177  1.7600000000000E+00  3.9928118459027E-02  1.9229972952095E-01
   178  1.7700000000000E+00  4.3485901141242E-02  1.7965258446010E-01
   179  1.7800000000000E+00  4.6653921589494E-02  1.6761862966140E-01
   180  1.7900000000000E+00  4.9442723211389E-02  1.5618766792192E-01
   181  1.8000000000000E+00  5.1863376371946E-02  1.4534773713372E-01
   182  1.8100000000000E+00  5.3927451220460E-02  1.3508530261866E-01
   183  1.8200000000000E+00  5.5646990162241E-02  1.2538544505108E-01
   184  1.8300000000000E+00  5.7034479862053E-02  1.1623204330639E-01
   185  1.8400000000000E+00  5.8102822675845E-02  1.0760795160479E-01
   186  1.8500000000000E+00  5.8865307417738E-02  9.9495170353988E-02
   187  1.8600000000000E+00  5.9335579380745E-02  9.1875010135073E-02
   188  1.8700000000000E+00  5.9527609541950E-02  8.4728248318718E-02
   189  1.8800000000000E+00  5.9455662895897E-02  7.8035277846493E-02
   190  1.8900000000000E+00  5.9134265873497E-02  7.1776247762106E-02
   191  1.9000000000000E+00  5.8578172817920E-02  6.5931195130710E-02
   192  1.9100000000000E+00  5.7802331503414E-02  6.0480168040195E-02
   193  1.9200000000000E+00  5.6821847697889E-02  5.5403339435943E-02
   194  1.9300000000000E+00  5.5651948784763E-02  5.0681111598965E-02
   195  1.9400000000000E+00  5.4307946474798E-02  4.6294211138089E-02
   196  1.9500000000000E+00  5.2805198653459E-02  4.2223774427362E-02
   197  1.9600000000000E+00  5.1159070423891E-02  3.8451423480137E-02
   198  1.9700000000000E+00  4.9384894419992E-02  3.4959332311771E-02
   199  1.9800000000000E+00  4.7497930477907E-02  3.1730283901893E-02
   200  1.9900000000000E+00  4.5513324767596E-02  2.8747717925587E-02
   201  2.0000000000000E+00  4.3446068498656E-02  2.5995769478418E-02
   202  2.0100000000000E+00  4.1310956326319E-02  2.3459299073342E-02
   203  2.0200000000000E+00  3.9122544594788E-02  2.1123914240473E-02
   204  2.0300000000000E+00  3.6895109564655E-02  1.8975983106775E-02
   205  2.0400000000000E+00  3.4642605780210E-02  1.7002640377817E-02
   206  2.0500000000000E+00  3.2378624740151E-02  1.5191786184622E-02
   207  2.0600000000000E+00  3.0116354041610E-02  1.3532078294486E-02
   208  2.0700000000000E+00  2.7868537172710E-02  1.2012918216562E-02
   209  2.0800000000000E+00  2.5647434132859E-02  1.0624431761688E-02
   210  2.0900000000000E+00  2.3464783062360E-02  9.3574446368196E-03
   211  2.1000000000000E+00  2.1331763064136E-02  8.2034536727088E-03
   212  2.1100000000000E+00  1.9258958399942E-02  7.1545942956990E-03
   213  2.1200000000000E+00  1.7256324242111E-02  6.2036048615578E-03
   214  2.1300000000000E+00  1.5333154158563E-02  5.3437900867206E-03
   215  2.1400000000000E+00  1.3498049502870E-02  4.5689739404012E-03
   216  2.1500000000000E+00  1.1758890833919E-02  3.8734563226992E-03
   217  2.1600000000000E+00  1.0122812125029E-02  3.2520332681737E-03
   218  2.1700000000000E+00  8.5961745012418E-03  2.6997960622657E-03
   219  2.1800000000000E+00  7.1845503906066E-03  2.2104357384009E-03
   220  2.1900000000000E+00  5.8927106255965E-03  1.7767275646365E-03
   221  2.2000000000000E+00  4.7246050926766E-03  1.3963216991228E-03
   222  2.2100000000000E+00  3.6833348451144E-03  1.0673080625402E-03
   223  2.2200000000000E+00  2.7711413035299E-03  7.8742626462652E-04
   224  2.2300000000000E+00  1.9894032603902E-03  5.5440964728062E-04
   225  2.2400000000000E+00  1.3386340450595E-03  3.6590083713246E-04
   226  2.2500000000000E+00  8.1867587366569E-04  2.1949230997826E-04
   227  2.2600000000000E+00  4.2753921053676E-04  1.1244389475057E-04
   228  2.2700000000000E+00  1.6322554548237E-04  4.2126076888796E-05
   229  2.2800000000000E+00  3.0489497961518E-05  7.7170197049975E-06
   230  2.2900000000000E+00 -4.8848962929873E-06 -1.2054030632986E-06
   231  2.3000000000000E+00 -1.9940931087277E-07 -4.8891720285617E-08
   232  2.31  0.  0.
   233  2.32 -0. -0.
   234  2.33  0. -0.
   235  2.34  0. -0.
   236  2.35  0.  0.
   237  2.36  0.  0.
   238  2.37  0.  0.
   239  2.38  0.  0.
   240  2.39  0.  0.
   241  2.40  0.  0.
   242  2.41  0.  0.
   243  2.42  0.  0.
   244  2.43  0.  0.
   245  2.44  0.  0.
   246  2.45  0.  0.
   247  2.46  0.  0.
   248  2.47  0.  0.
   249  2.48  0.  0.
   250  2.49  0.  0.
   251  2.50  0.  0.
   252  2.51  0.  0.
   253  2.52  0.  0.
   254  2.53  0.  0.
   255  2.54  0.  0.
   256  2.55  0.  0.
   257  2.56  0.  0.
   258  2.57  0.  0.
   259  2.58  0.  0.
   260  2.59  0.  0.
   261  2.60  0.  0.
   262  2.61  0.  0.
   263  2.62  0.  0.
   264  2.63  0.  0.
   265  2.64  0.  0.
   266  2.65  0.  0.
   267  2.66  0.  0.
   268  2.67  0.  0.
   269  2.68  0.  0.
   270  2.69  0.  0.
   271  2.70  0.  0.
   272  2.71  0.  0.
   273  2.72  0.  0.
   274  2.73  0.  0.
   275  2.74  0.  0.
   276  2.75  0.  0.
   277  2.76  0.  0.
   278  2.77  0.  0.
   279  2.78  0.  0.
   280  2.79  0.  0.
   281  2.80  0.  0.
   282  2.81  0.  0.
   283  2.82  0.  0.
   284  2.83  0.  0.
   285  2.84  0.  0.
   286  2.85  0.  0.
   287  2.86  0.  0.
   288  2.87  0.  0.
   289  2.88  0.  0.
   290  2.89  0.  0.
   291  2.90  0.  0.
   292  2.91  0.  0.
   293  2.92  0.  0.
   294  2.93  0.  0.
   295  2.94  0.  0.
   296  2.95  0.  0.
   297  2.96  0.  0.
   298  2.97  0.  0.
   299  2.98  0.  0.
   300  2.99  0.  0.
   301  3.00  0.  0.
   302  3.01  0.  0.
   303  3.02  0.  0.
   304  3.03  0.  0.
   305  3.04  0.  0.
   306  3.05  0.  0.
   307  3.06  0.  0.
   308  3.07  0.  0.
   309  3.08  0.  0.
   310  3.09  0.  0.
   311  3.10  0.  0.
   312  3.11  0.  0.
   313  3.12  0.  0.
   314  3.13  0.  0.
   315  3.14  0.  0.
   316  3.15  0.  0.
   317  3.16  0.  0.
   318  3.17  0.  0.
   319  3.18  0.  0.
   320  3.19  0.  0.
   321  3.20  0.  0.
   322  3.21  0.  0.
   323  3.22  0.  0.
   324  3.23  0.  0.
   325  3.24  0.  0.
   326  3.25  0.  0.
   327  3.26  0.  0.
   328  3.27  0.  0.
   329  3.28  0.  0.
   330  3.29  0.  0.
   331  3.30  0.  0.
   332  3.31  0.  0.
   333  3.32  0.  0.
   334  3.33  0.  0.
   335  3.34  0.  0.
   336  3.35  0.  0.
   337  3.36  0.  0.
   338  3.37  0.  0.
   339  3.38  0.  0.
   340  3.39  0.  0.
   341  3.40  0.  0.
   342  3.41  0.  0.
   343  3.42  0.  0.
   344  3.43  0.  0.
   345  3.44  0.  0.
   346  3.45  0.  0.
   347  3.46  0.  0.
   348  3.47  0.  0.
   349  3.48  0.  0.
   350  3.49  0.  0.
   351  3.50  0.  0.
   352  3.51  0.  0.
   353  3.52  0.  0.
   354  3.53  0.  0.
   355  3.54  0.  0.
   356  3.55  0.  0.
   357  3.56  0.  0.
   358  3.57  0.  0.
   359  3.58  0.  0.
   360  3.59  0.  0.
   361  3.60  0.  0.
   362  3.61  0.  0.
   363  3.62  0.  0.
   364  3.63  0.  0.
   365  3.64  0.  0.
   366  3.65  0.  0.
   367  3.66  0.  0.
   368  3.67  0.  0.
   369  3.68  0.  0.
   370  3.69  0.  0.
   371  3.70  0.  0.
   372  3.71  0.  0.
   373  3.72  0.  0.
   374  3.73  0.  0.
   375  3.74  0.  0.
   376  3.75  0.  0.
   377  3.76  0.  0.
   378  3.77  0.  0.
   379  3.78  0.  0.
   380  3.79  0.  0.
   381  3.80  0.  0.
   382  3.81  0.  0.
   383  3.82  0.  0.
   384  3.83  0.  0.
   385  3.84  0.  0.
   386  3.85  0.  0.
   387  3.86  0.  0.
   388  3.87  0.  0.
   389  3.88  0.  0.
   390  3.89  0.  0.
   391  3.90  0.  0.
   392  3.91  0.  0.
   393  3.92  0.  0.
   394  3.93  0.  0.
   395  3.94  0.  0.
   396  3.95  0.  0.
   397  3.96  0.  0.
   398  3.97  0.  0.
   399  3.98  0.  0.
   400  3.99  0.  0.
   401  4.00  0.  0.
   402  4.01  0.  0.
   403  4.02  0.  0.
   404  4.03  0.  0.
   405  4.04  0.  0.
   406  4.05  0.  0.
   407  4.06  0.  0.
   408  4.07  0.  0.
   409  4.08  0.  0.
   410  4.09  0.  0.
   411  4.10  0.  0.
   412  4.11  0.  0.
   413  4.12  0.  0.
   414  4.13  0.  0.
   415  4.14  0.  0.
   416  4.15  0.  0.
   417  4.16  0.  0.
   418  4.17  0.  0.
   419  4.18  0.  0.
   420  4.19  0.  0.
   421  4.20  0.  0.
   422  4.21  0.  0.
   423  4.22  0.  0.
   424  4.23  0.  0.
   425  4.24  0.  0.
   426  4.25  0.  0.
   427  4.26  0.  0.
   428  4.27  0.  0.
   429  4.28  0.  0.
   430  4.29  0.  0.
   431  4.30  0.  0.
   432  4.31  0.  0.
   433  4.32  0.  0.
   434  4.33  0.  0.
   435  4.34  0.  0.
   436  4.35  0.  0.
   437  4.36  0.  0.
   438  4.37  0.  0.
   439  4.38  0.  0.
   440  4.39  0.  0.
   441  4.40  0.  0.
   442  4.41  0.  0.
   443  4.42  0.  0.
   444  4.43  0.  0.
   445  4.44  0.  0.
   446  4.45  0.  0.
   447  4.46  0.  0.
   448  4.47  0.  0.
   449  4.48  0.  0.
   450  4.49  0.  0.
   451  4.50  0.  0.
   452  4.51  0.  0.
   453  4.52  0.  0.
   454  4.53  0.  0.
   455  4.54  0.  0.
   456  4.55  0.  0.
   457  4.56  0.  0.
   458  4.57  0.  0.
   459  4.58  0.  0.
   460  4.59  0.  0.
   461  4.60  0.  0.
   462  4.61  0.  0.
   463  4.62  0.  0.
   464  4.63  0.  0.
   465  4.64  0.  0.
   466  4.65  0.  0.
   467  4.66  0.  0.
   468  4.67  0.  0.
   469  4.68  0.  0.
   470  4.69  0.  0.
   471  4.70  0.  0.
   472  4.71  0.  0.
   473  4.72  0.  0.
   474  4.73  0.  0.
   475  4.74  0.  0.
   476  4.75  0.  0.
   477  4.76  0.  0.
   478  4.77  0.  0.
   479  4.78  0.  0.
   480  4.79  0.  0.
   481  4.80  0.  0.
   482  4.81  0.  0.
   483  4.82  0.  0.
   484  4.83  0.  0.
   485  4.84  0.  0.
   486  4.85  0.  0.
   487  4.86  0.  0.
   488  4.87  0.  0.
   489  4.88  0.  0.
   490  4.89  0.  0.
   491  4.90  0.  0.
   492  4.91  0.  0.
   493  4.92  0.  0.
   494  4.93  0.  0.
   495  4.94  0.  0.
   496  4.95  0.  0.
   497  4.96  0.  0.
   498  4.97  0.  0.
   499  4.98  0.  0.
   500  4.99  0.  0.
   501  5.00  0.  0.
   502  5.01  0.  0.
   503  5.02  0.  0.
   504  5.03  0.  0.
   505  5.04  0.  0.
   506  5.05  0.  0.
   507  5.06  0.  0.
   508  5.07  0.  0.
   509  5.08  0.  0.
   510  5.09  0.  0.
   511  5.10  0.  0.
   512  5.11  0.  0.
   513  5.12  0.  0.
   514  5.13  0.  0.
   515  5.14  0.  0.
   516  5.15  0.  0.
   517  5.16  0.  0.
   518  5.17  0.  0.
   519  5.18  0.  0.
   520  5.19  0.  0.
   521  5.20  0.  0.
   522  5.21  0.  0.
   523  5.22  0.  0.
   524  5.23  0.  0.
   525  5.24  0.  0.
   526  5.25  0.  0.
   527  5.26  0.  0.
   528  5.27  0.  0.
   529  5.28  0.  0.
   530  5.29  0.  0.
   531  5.30  0.  0.
   532  5.31  0.  0.
   533  5.32  0.  0.
   534  5.33  0.  0.
   535  5.34  0.  0.
   536  5.35  0.  0.
   537  5.36  0.  0.
   538  5.37  0.  0.
   539  5.38  0.  0.
   540  5.39  0.  0.
   541  5.40  0.  0.
   542  5.41  0.  0.
   543  5.42  0.  0.
   544  5.43  0.  0.
   545  5.44  0.  0.
   546  5.45  0.  0.
   547  5.46  0.  0.
   548  5.47  0.  0.
   549  5.48  0.  0.
   550  5.49  0.  0.
   551  5.50  0.  0.
   552  5.51  0.  0.
   553  5.52  0.  0.
   554  5.53  0.  0.
   555  5.54  0.  0.
   556  5.55  0.  0.
   557  5.56  0.  0.
   558  5.57  0.  0.
   559  5.58  0.  0.
   560  5.59  0.  0.
   561  5.60  0.  0.
   562  5.61  0.  0.
   563  5.62  0.  0.
   564  5.63  0.  0.
   565  5.64  0.  0.
   566  5.65  0.  0.
   567  5.66  0.  0.
   568  5.67  0.  0.
   569  5.68  0.  0.
   570  5.69  0.  0.
   571  5.70  0.  0.
   572  5.71  0.  0.
   573  5.72  0.  0.
   574  5.73  0.  0.
   575  5.74  0.  0.
   576  5.75  0.  0.
   577  5.76  0.  0.
   578  5.77  0.  0.
   579  5.78  0.  0.
   580  5.79  0.  0.
   581  5.80  0.  0.
   582  5.81  0.  0.
   583  5.82  0.  0.
   584  5.83  0.  0.
   585  5.84  0.  0.
   586  5.85  0.  0.
   587  5.86  0.  0.
   588  5.87  0.  0.
   589  5.88  0.  0.
   590  5.89  0.  0.
   591  5.90  0.  0.
   592  5.91  0.  0.
   593  5.92  0.  0.
   594  5.93  0.  0.
   595  5.94  0.  0.
   596  5.95  0.  0.
   597  5.96  0.  0.
   598  5.97  0.  0.
   599  5.98  0.  0.
   600  5.99  0.  0.
   1                        -1.2805498308834E+00 -4.8655284017983E-01
     1  0.0000000000000E+00 -1.4854057220348E-10  2.1483767542740E-10
     2  1.0000000000000E-02 -5.0103718772423E-04  1.3539231892792E-03
     3  2.0000000000000E-02 -2.0005402197093E-03  5.4095141778580E-03
     4  3.0000000000000E-02 -4.4877007987985E-03  1.2148263977233E-02
     5  4.0000000000000E-02 -7.9445626740404E-03  2.1539413326155E-02
     6  5.0000000000000E-02 -1.2346107738265E-02  3.3540085882161E-02
     7  6.0000000000000E-02 -1.7660376028058E-02  4.8095473915360E-02
     8  7.0000000000000E-02 -2.3848619092389E-02  6.5139075734024E-02
     9  8.0000000000000E-02 -3.0865486047639E-02  8.4592983856623E-02
    10  9.0000000000000E-02 -3.8659241491341E-02  1.0636822273417E-01
    11  1.0000000000000E-01 -4.7172014305234E-02  1.3036513462099E-01
    12  1.1000000000000E-01 -5.6340076240479E-02  1.5647381199121E-01
    13  1.2000000000000E-01 -6.6094149045534E-02  1.8457457470520E-01
    14  1.3000000000000E-01 -7.6359738769737E-02  2.1453848994295E-01
    15  1.4000000000000E-01 -8.7057495754579E-02  2.4622793274315E-01
    16  1.5000000000000E-01 -9.8103598710024E-02  2.7949718481672E-01
    17  1.6000000000000E-01 -1.0941016116555E-01  3.1419306914322E-01
    18  1.7000000000000E-01 -1.2088565848557E-01  3.5015561770769E-01
    19  1.8000000000000E-01 -1.3243537354658E-01  3.8721876959595E-01
    20  1.9000000000000E-01 -1.4396185908983E-01  4.2521109653727E-01
    21  2.0000000000000E-01 -1.5536541468770E-01  4.6395655286635E-01
    22  2.1000000000000E-01 -1.6654457619641E-01  5.0327524677143E-01
    23  2.2000000000000E-01 -1.7739661551024E-01  5.4298422960261E-01
    24  2.3000000000000E-01 -1.8781804838553E-01  5.8289829993492E-01
    25  2.4000000000000E-01 -1.9770514806494E-01  6.2283081901383E-01
    26  2.5000000000000E-01 -2.0695446240465E-01  6.6259453415784E-01
    27  2.6000000000000E-01 -2.1546333218964E-01  7.0200240665287E-01
    28  2.7000000000000E-01 -2.2313040831406E-01  7.4086844064751E-01
    29  2.8000000000000E-01 -2.2985616550661E-01  7.7900850954598E-01
    30  2.9000000000000E-01 -2.3554341029269E-01  8.1624117639733E-01
    31  3.0000000000000E-01 -2.4009778090780E-01  8.5238850479526E-01
    32  3.1000000000000E-01 -2.4342823690895E-01  8.8727685683230E-01
    33  3.2000000000000E-01 -2.4544753627258E-01  9.2073767469535E-01
    34  3.3000000000000E-01 -2.4607269781932E-01  9.5260824254628E-01
    35  3.4000000000000E-01 -2.4522544686669E-01  9.8273242540170E-01
    36  3.5000000000000E-01 -2.4283264208073E-01  1.0109613818090E+00
    37  3.6000000000000E-01 -2.3882668157631E-01  1.0371542472126E+00
    38  3.7000000000000E-01 -2.3314588640304E-01  1.0611787850115E+00
    39  3.8000000000000E-01 -2.2573485964874E-01  1.0829120024335E+00
    40  3.9000000000000E-01 -2.1654481949527E-01  1.1022407284792E+00
    41  4.0000000000000E-01 -2.0553390467184E-01  1.1190621513385E+00
    42  4.1000000000000E-01 -1.9266745086724E-01  1.1332843128324E+00
    43  4.2000000000000E-01 -1.7791823678592E-01  1.1448265576022E+00
    44  4.3000000000000E-01 -1.6126669866152E-01  1.1536199349395E+00
    45  4.4000000000000E-01 -1.4270111217549E-01  1.1596075513387E+00
    46  4.5000000000000E-01 -1.2221774086718E-01  1.1627448720436E+00
    47  4.6000000000000E-01 -9.9820950264751E-02  1.1629999700619E+00
    48  4.7000000000000E-01 -7.5523287112377E-02  1.1603537213299E+00
    49  4.8000000000000E-01 -4.9345523218659E-02  1.1547999449241E+00
    50  4.9000000000000E-01 -2.1316663602669E-02  1.1463454874380E+00
    51  5.0000000000000E-01  8.5260812327665E-03  1.1350102508674E+00
    52  5.1000000000000E-01  4.0137358916553E-02  1.1208271635776E+00
    53  5.2000000000000E-01  7.3463774575011E-02  1.1038420941629E+00
    54  5.3000000000000E-01  1.0844402565458E-01  1.0841137082406E+00
    55  5.4000000000000E-01  1.4500907175486E-01  1.0617132684644E+00
    56  5.5000000000000E-01  1.8308233887309E-01  1.0367243782810E+00
    57  5.6000000000000E-01  2.2257995731125E-01  1.0092426701908E+00
    58  5.7000000000000E-01  2.6341103234964E-01  9.7937543951823E-01
    59  5.8000000000000E-01  3.0547794664695E-01  9.4724122492860E-01
    60  5.9000000000000E-01  3.4867669318687E-01  9.1296933716895E-01
    61  6.0000000000000E-01  3.9289723745604E-01  8.7669933773834E-01
    62  6.1000000000000E-01  4.3802390740775E-01  8.3858046942181E-01
    63  6.2000000000000E-01  4.8393580964141E-01  7.9877104084402E-01
    64  6.3000000000000E-01  5.3050727010955E-01  7.5743776741358E-01
    65  6.4000000000000E-01  5.7760829755244E-01  7.1475507123789E-01
    66  6.5000000000000E-01  6.2510506775647E-01  6.7090434278800E-01
    67  6.6000000000000E-01  6.7286042663543E-01  6.2607316728420E-01
    68  6.7000000000000E-01  7.2073441004609E-01  5.8045451895321E-01
    69  6.8000000000000E-01  7.6858477816929E-01  5.3424592647856E-01
    70  6.9000000000000E-01  8.1626756221710E-01  4.8764861312242E-01
    71  7.0000000000000E-01  8.6363762116540E-01  4.4086661514295E-01
    72  7.1000000000000E-01  9.1054920615912E-01  3.9410588226185E-01
    73  7.2000000000000E-01  9.5685653019593E-01  3.4757336405417E-01
    74  7.3000000000000E-01  1.0024143406623E+00  3.0147608623310E-01
    75  7.4000000000000E-01  1.0470784922746E+00  2.5602022088835E-01
    76  7.5000000000000E-01  1.0907065179677E+00  2.1141015480523E-01
    77  7.6000000000000E-01  1.1331581952724E+00  1.6784756004210E-01
    78  7.7000000000000E-01  1.1742961057356E+00  1.2553047097800E-01
    79  7.8000000000000E-01  1.2139861849570E+00  8.4652372055822E-02
    80  7.9000000000000E-01  1.2520982608495E+00  4.5401300442583E-02