In    ONCVPSP-4.0.1  r_core=   3.07550   3.07550   2.50948
     49.0000     13.0000      230118    zatom,zion,pspd
     8       2   2     4   600     0    pspcod,pspxc,lmax,lloc,mmax,r2well
  5.99000000  5.00000000  0.00000000    rchrg fchrg qchrg
     2     2     2     0     0    nproj
     1     1           extension_switch
   0                         4.6056958996391E+00  4.4308438777405E-01
     1  0.0000000000000E+00  3.7691932908146E-12 -1.2048254754982E-11
     2  1.0000000000000E-02  1.4059657926241E-02 -3.5602438740135E-03
     3  2.0000000000000E-02  2.8128908711711E-02 -7.1393375237727E-03
     4  3.0000000000000E-02  4.2217292883106E-02 -1.0756011776829E-02
     5  4.0000000000000E-02  5.6334246516321E-02 -1.4428760163611E-02
     6  5.0000000000000E-02  7.0489049545749E-02 -1.8175721763998E-02
     7  6.0000000000000E-02  8.4690774712578E-02 -2.2014565839535E-02
     8  7.0000000000000E-02  9.8948237360631E-02 -2.5962378832394E-02
     9  8.0000000000000E-02  1.1326994628460E-01 -3.0035554300143E-02
    10  9.0000000000000E-02  1.2766405583076E-01 -3.4249686340455E-02
    11  1.0000000000000E-01  1.4213831944486E-01 -3.8619467042213E-02
    12  1.1000000000000E-01  1.5670004485516E-01 -4.3158588478915E-02
    13  1.2000000000000E-01  1.7135605107174E-01 -4.7879649737258E-02
    14  1.3000000000000E-01  1.8611262737476E-01 -5.2794069448147E-02
    15  1.4000000000000E-01  2.0097549445586E-01 -5.7912004259325E-02
    16  1.5000000000000E-01  2.1594976786703E-01 -6.3242273658640E-02
    17  1.6000000000000E-01  2.3103992392136E-01 -6.8792291524575E-02
    18  1.7000000000000E-01  2.4624976817910E-01 -7.4568004746392E-02
    19  1.8000000000000E-01  2.6158240664087E-01 -8.0573839220139E-02
    20  1.9000000000000E-01  2.7704021975824E-01 -8.6812653489250E-02
    21  2.0000000000000E-01  2.9262483935912E-01 -9.3285700259317E-02
    22  2.1000000000000E-01  3.0833712857279E-01 -9.9992595976475E-02
    23  2.2000000000000E-01  3.2417716482595E-01 -1.0693129861755E-01
    24  2.3000000000000E-01  3.4014422596797E-01 -1.1409809379819E-01
    25  2.4000000000000E-01  3.5623677956941E-01 -1.2148758926268E-01
    26  2.5000000000000E-01  3.7245247542426E-01 -1.2909271777596E-01
    27  2.6000000000000E-01  3.8878814127220E-01 -1.3690474839577E-01
    28  2.7000000000000E-01  4.0523978174308E-01 -1.4491330605943E-01
    29  2.8000000000000E-01  4.2180258051191E-01 -1.5310639937760E-01
    30  2.9000000000000E-01  4.3847090563864E-01 -1.6147045648476E-01
    31  3.0000000000000E-01  4.5523831805320E-01 -1.6999036875535E-01
    32  3.1000000000000E-01  4.7209758313285E-01 -1.7864954215385E-01
    33  3.2000000000000E-01  4.8904068530543E-01 -1.8742995594794E-01
    34  3.3000000000000E-01  5.0605884559942E-01 -1.9631222847640E-01
    35  3.4000000000000E-01  5.2314254204912E-01 -2.0527568962689E-01
    36  3.5000000000000E-01  5.4028153285114E-01 -2.1429845964486E-01
    37  3.6000000000000E-01  5.5746488215721E-01 -2.2335753386211E-01
    38  3.7000000000000E-01  5.7468098837702E-01 -2.3242887290362E-01
    39  3.8000000000000E-01  5.9191761485514E-01 -2.4148749790337E-01
    40  3.9000000000000E-01  6.0916192277573E-01 -2.5050759023452E-01
    41  4.0000000000000E-01  6.2640050614087E-01 -2.5946259523666E-01
    42  4.1000000000000E-01  6.4361942865943E-01 -2.6832532940285E-01
    43  4.2000000000000E-01  6.6080426237690E-01 -2.7706809047246E-01
    44  4.3000000000000E-01  6.7794012786989E-01 -2.8566276986110E-01
    45  4.4000000000000E-01  6.9501173582360E-01 -2.9408096684890E-01
    46  4.5000000000000E-01  7.1200342980614E-01 -3.0229410393962E-01
    47  4.6000000000000E-01  7.2889923005000E-01 -3.1027354279937E-01
    48  4.7000000000000E-01  7.4568287804814E-01 -3.1799070018155E-01
    49  4.8000000000000E-01  7.6233788177085E-01 -3.2541716324710E-01
    50  4.9000000000000E-01  7.7884756130840E-01 -3.3252480369404E-01
    51  5.0000000000000E-01  7.9519509474533E-01 -3.3928589011850E-01
    52  5.1000000000000E-01  8.1136356407303E-01 -3.4567319804156E-01
    53  5.2000000000000E-01  8.2733600094981E-01 -3.5166011705050E-01
    54  5.3000000000000E-01  8.4309543212078E-01 -3.5722075452098E-01
    55  5.4000000000000E-01  8.5862492431398E-01 -3.6233003540775E-01
    56  5.5000000000000E-01  8.7390762843422E-01 -3.6696379761507E-01
    57  5.6000000000000E-01  8.8892682288230E-01 -3.7109888248440E-01
    58  5.7000000000000E-01  9.0366595583371E-01 -3.7471321996614E-01
    59  5.8000000000000E-01  9.1810868631879E-01 -3.7778590807420E-01
    60  5.9000000000000E-01  9.3223892395474E-01 -3.8029728625507E-01
    61  6.0000000000000E-01  9.4604086718877E-01 -3.8222900234014E-01
    62  6.1000000000000E-01  9.5949903992179E-01 -3.8356407278748E-01
    63  6.2000000000000E-01  9.7259832639219E-01 -3.8428693595861E-01
    64  6.3000000000000E-01  9.8532400421040E-01 -3.8438349821744E-01
    65  6.4000000000000E-01  9.9766177544636E-01 -3.8384117268056E-01
    66  6.5000000000000E-01  1.0095977956839E+00 -3.8264891049135E-01
    67  6.6000000000000E-01  1.0211187009686E+00 -3.8079722453476E-01
    68  6.7000000000000E-01  1.0322116325872E+00 -3.7827820555368E-01
    69  6.8000000000000E-01  1.0428642596316E+00 -3.7508553067308E-01
    70  6.9000000000000E-01  1.0530647993107E+00 -3.7121446438238E-01
    71  7.0000000000000E-01  1.0628020349887E+00 -3.6666185207139E-01
    72  7.1000000000000E-01  1.0720653319397E+00 -3.6142610625842E-01
    73  7.2000000000000E-01  1.0808446508227E+00 -3.5550718569268E-01
    74  7.3000000000000E-01  1.0891305588928E+00 -3.4890656755444E-01
    75  7.4000000000000E-01  1.0969142389783E+00 -3.4162721301737E-01
    76  7.5000000000000E-01  1.1041874962634E+00 -3.3367352647570E-01
    77  7.6000000000000E-01  1.1109427629302E+00 -3.2505130877649E-01
    78  7.7000000000000E-01  1.1171731007243E+00 -3.1576770483146E-01
    79  7.8000000000000E-01  1.1228722015182E+00 -3.0583114601578E-01
    80  7.9000000000000E-01  1.1280343859592E+00 -2.9525128779081E-01
    81  8.0000000000000E-01  1.1326546002945E+00 -2.8403894301507E-01
    82  8.1000000000000E-01  1.1367284114799E+00 -2.7220601143194E-01
    83  8.2000000000000E-01  1.1402520006816E+00 -2.5976540584360E-01
    84  8.3000000000000E-01  1.1432221552920E+00 -2.4673097549841E-01
    85  8.4000000000000E-01  1.1456362595839E+00 -2.3311742723377E-01
    86  8.5000000000000E-01  1.1474922841350E+00 -2.1894024492669E-01
    87  8.6000000000000E-01  1.1487887741573E+00 -2.0421560781237E-01
    88  8.7000000000000E-01  1.1495248368726E+00 -1.8896030823432E-01
    89  8.8000000000000E-01  1.1497001280737E+00 -1.7319166938928E-01
    90  8.9000000000000E-01  1.1493148380162E+00 -1.5692746362691E-01
    91  9.0000000000000E-01  1.1483696767849E+00 -1.4018583185636E-01
    92  9.1000000000000E-01  1.1468658592779E+00 -1.2298520460059E-01
    93  9.2000000000000E-01  1.1448050899505E+00 -1.0534422522440E-01
    94  9.3000000000000E-01  1.1421895474593E+00 -8.7281675843972E-02
    95  9.4000000000000E-01  1.1390218693416E+00 -6.8816406403200E-02
    96  9.5000000000000E-01  1.1353051368630E+00 -4.9967267377379E-02
    97  9.6000000000000E-01  1.1310428601575E+00 -3.0753046535793E-02
    98  9.7000000000000E-01  1.1262389637832E+00 -1.1192410163470E-02
    99  9.8000000000000E-01  1.1208977728024E+00  8.6961508921763E-03
   100  9.9000000000000E-01  1.1150239994939E+00  2.8894370021113E-02
   101  1.0000000000000E+00  1.1086227307926E+00  4.9384248207786E-02
   102  1.0100000000000E+00  1.1016994165412E+00  7.0148091697946E-02
   103  1.0200000000000E+00  1.0942598586329E+00  9.1168543771461E-02
   104  1.0300000000000E+00  1.0863102011081E+00  1.1242861046202E-01
   105  1.0400000000000E+00  1.0778569212612E+00  1.3391168011201E-01
   106  1.0500000000000E+00  1.0689068217991E+00  1.5560153669734E-01
   107  1.0600000000000E+00  1.0594670240820E+00  1.7748236690634E-01
   108  1.0700000000000E+00  1.0495449624655E+00  1.9953876100430E-01
   109  1.0800000000000E+00  1.0391483797490E+00  2.2175570756526E-01
   110  1.0900000000000E+00  1.0282853237242E+00  2.4411858219944E-01
   111  1.1000000000000E+00  1.0169641448049E+00  2.6661313045409E-01
   112  1.1100000000000E+00  1.0051934947056E+00  2.8922544511101E-01
   113  1.1200000000000E+00  9.9298232612563E-01  3.1194193815030E-01
   114  1.1300000000000E+00  9.8033989338267E-01  3.3474930769326E-01
   115  1.1400000000000E+00  9.6727575392900E-01  3.5763450027971E-01
   116  1.1500000000000E+00  9.5379977067091E-01  3.8058466887409E-01
   117  1.1600000000000E+00  9.3992211500272E-01  4.0358712703245E-01
   118  1.1700000000000E+00  9.2565327045638E-01  4.2662929969582E-01
   119  1.1800000000000E+00  9.1100403685810E-01  4.4969867110719E-01
   120  1.1900000000000E+00  8.9598553487521E-01  4.7278273037676E-01
   121  1.2000000000000E+00  8.8060921082905E-01  4.9586891524381E-01
   122  1.2100000000000E+00  8.6488684164249E-01  5.1894455460443E-01
   123  1.2200000000000E+00  8.4883053978556E-01  5.4199681038965E-01
   124  1.2300000000000E+00  8.3245275807749E-01  5.6501261939123E-01
   125  1.2400000000000E+00  8.1576629420036E-01  5.8797863563900E-01
   126  1.2500000000000E+00  7.9878429477663E-01  6.1088117393808E-01
   127  1.2600000000000E+00  7.8152025886203E-01  6.3370615517110E-01
   128  1.2700000000000E+00  7.6398804070489E-01  6.5643905396608E-01
   129  1.2800000000000E+00  7.4620185162419E-01  6.7906484931888E-01
   130  1.2900000000000E+00  7.2817626086108E-01  7.0156797874409E-01
   131  1.3000000000000E+00  7.0992619526213E-01  7.2393229650837E-01
   132  1.3100000000000E+00  6.9146693765739E-01  7.4614103647531E-01
   133  1.3200000000000E+00  6.7281412380234E-01  7.6817678006242E-01
   134  1.3300000000000E+00  6.5398373776017E-01  7.9002142977719E-01
   135  1.3400000000000E+00  6.3499210560909E-01  8.1165618876171E-01
   136  1.3500000000000E+00  6.1585588736882E-01  8.3306154673414E-01
   137  1.3600000000000E+00  5.9659206705128E-01  8.5421727266974E-01
   138  1.3700000000000E+00  5.7721794075172E-01  8.7510241451586E-01
   139  1.3800000000000E+00  5.5775110270950E-01  8.9569530618274E-01
   140  1.3900000000000E+00  5.3820942928088E-01  9.1597358199767E-01
   141  1.4000000000000E+00  5.1861106078070E-01  9.3591419875180E-01
   142  1.4100000000000E+00  4.9897438116477E-01  9.5549346540956E-01
   143  1.4200000000000E+00  4.7931799554042E-01  9.7468708048847E-01
   144  1.4300000000000E+00  4.5966070550909E-01  9.9347017705372E-01
   145  1.4400000000000E+00  4.4002148236133E-01  1.0118173752075E+00
   146  1.4500000000000E+00  4.2041943816192E-01  1.0297028418871E+00
   147  1.4600000000000E+00  4.0087379477972E-01  1.0471003577218E+00
   148  1.4700000000000E+00  3.8140385093480E-01  1.0639833906297E+00
   149  1.4800000000000E+00  3.6202894735272E-01  1.0803251757742E+00
   150  1.4900000000000E+00  3.4276843013298E-01  1.0960988014323E+00
   151  1.5000000000000E+00  3.2364161245646E-01  1.1112773002669E+00
   152  1.5100000000000E+00  3.0466773477301E-01  1.1258337454309E+00
   153  1.5200000000000E+00  2.8586592362737E-01  1.1397413508750E+00
   154  1.5300000000000E+00  2.6725514929713E-01  1.1529735751730E+00
   155  1.5400000000000E+00  2.4885418243213E-01  1.1655042281247E+00
   156  1.5500000000000E+00  2.3068154989917E-01  1.1773075793478E+00
   157  1.5600000000000E+00  2.1275549004955E-01  1.1883584680236E+00
   158  1.5700000000000E+00  1.9509390763992E-01  1.1986324129173E+00
   159  1.5800000000000E+00  1.7771432864849E-01  1.2081057217588E+00
   160  1.5900000000000E+00  1.6063385523957E-01  1.2167555990347E+00
   161  1.6000000000000E+00  1.4386912113840E-01  1.2245602512144E+00
   162  1.6100000000000E+00  1.2743624768666E-01  1.2314989884121E+00
   163  1.6200000000000E+00  1.1135080085572E-01  1.2375523214651E+00
   164  1.6300000000000E+00  9.5627749499992E-02  1.2427020534029E+00
   165  1.6400000000000E+00  8.0281425136584E-02  1.2469313642691E+00
   166  1.6500000000000E+00  6.5325483539881E-02  1.2502248882626E+00
   167  1.6600000000000E+00  5.0772868440402E-02  1.2525687821695E+00
   168  1.6700000000000E+00  3.6635777616477E-02  1.2539507840666E+00
   169  1.6800000000000E+00  2.2925631665030E-02  1.2543602612986E+00
   170  1.6900000000000E+00  9.6530457335718E-03  1.2537882467520E+00
   171  1.7000000000000E+00 -3.1721955099011E-03  1.2522274624819E+00
   172  1.7100000000000E+00 -1.5541159399690E-02  1.2496723297784E+00
   173  1.7200000000000E+00 -2.7445783027085E-02  1.2461189648061E+00
   174  1.7300000000000E+00 -3.8878886976579E-02  1.2415651589941E+00
   175  1.7400000000000E+00 -4.9834184804833E-02  1.2360103434042E+00
   176  1.7500000000000E+00 -6.0306288036954E-02  1.2294555363669E+00
   177  1.7600000000000E+00 -7.0290706469076E-02  1.2219032737319E+00
   178  1.7700000000000E+00 -7.9783843582282E-02  1.2133575211490E+00
   179  1.7800000000000E+00 -8.8782986879886E-02  1.2038235675725E+00
   180  1.7900000000000E+00 -9.7286292972980E-02  1.1933078996651E+00
   181  1.8000000000000E+00 -1.0529276792745E-01  1.1818180720992E+00
   182  1.8100000000000E+00 -1.1280223932441E-01  1.1693624819436E+00
   183  1.8200000000000E+00 -1.1981534227388E-01  1.1559506841733E+00
   184  1.8300000000000E+00 -1.2633353890800E-01  1.1415944252328E+00
   185  1.8400000000000E+00 -1.3235914225186E-01  1.1263082968289E+00
   186  1.8500000000000E+00 -1.3789531979299E-01  1.1101096775236E+00
   187  1.8600000000000E+00 -1.4294609509723E-01  1.0930187238912E+00
   188  1.8700000000000E+00 -1.4751634576625E-01  1.0750583348014E+00
   189  1.8800000000000E+00 -1.5161179796190E-01  1.0562541029377E+00
   190  1.8900000000000E+00 -1.5523901751645E-01  1.0366342537120E+00
   191  1.9000000000000E+00 -1.5840539764199E-01  1.0162295715822E+00
   192  1.9100000000000E+00 -1.6111914327607E-01  9.9507331407337E-01
   193  1.9200000000000E+00 -1.6338925211814E-01  9.7320111386649E-01
   194  1.9300000000000E+00 -1.6522549242908E-01  9.5065086938463E-01
   195  1.9400000000000E+00 -1.6663837768273E-01  9.2746262436925E-01
   196  1.9500000000000E+00 -1.6763913817506E-01  9.0367843699864E-01
   197  1.9600000000000E+00 -1.6823968971264E-01  8.7934223915796E-01
   198  1.9700000000000E+00 -1.6845259951659E-01  8.5449968652267E-01
   199  1.9800000000000E+00 -1.6829104949363E-01  8.2919800016880E-01
   200  1.9900000000000E+00 -1.6776879703863E-01  8.0348580046863E-01
   201  2.0000000000000E+00 -1.6690013354623E-01  7.7741293407210E-01
   202  2.0100000000000E+00 -1.6569984082044E-01  7.5103029481237E-01
   203  2.0200000000000E+00 -1.6418314558219E-01  7.2438963940689E-01
   204  2.0300000000000E+00 -1.6236567228386E-01  6.9754339885294E-01
   205  2.0400000000000E+00 -1.6026339444856E-01  6.7054448644048E-01
   206  2.0500000000000E+00 -1.5789258475909E-01  6.4344610332351E-01
   207  2.0600000000000E+00 -1.5526976412730E-01  6.1630154260342E-01
   208  2.0700000000000E+00 -1.5241164997926E-01  5.8916399288662E-01
   209  2.0800000000000E+00 -1.4933510399535E-01  5.6208634228009E-01
   210  2.0900000000000E+00 -1.4605707954595E-01  5.3512098378717E-01
   211  2.1000000000000E+00 -1.4259456906471E-01  5.0831962305706E-01
   212  2.1100000000000E+00 -1.3896455160059E-01  4.8173308942841E-01
   213  2.1200000000000E+00 -1.3518394078808E-01  4.5541115118955E-01
   214  2.1300000000000E+00 -1.3126953347168E-01  4.2940233595258E-01
   215  2.1400000000000E+00 -1.2723795921688E-01  4.0375375701485E-01
   216  2.1500000000000E+00 -1.2310563093382E-01  3.7851094654302E-01
   217  2.1600000000000E+00 -1.1888869683303E-01  3.5371769638090E-01
   218  2.1700000000000E+00 -1.1460299392470E-01  3.2941590723893E-01
   219  2.1800000000000E+00 -1.1026400326391E-01  3.0564544697685E-01
   220  2.1900000000000E+00 -1.0588680713450E-01  2.8244401864590E-01
   221  2.2000000000000E+00 -1.0148604835237E-01  2.5984703889580E-01
   222  2.2100000000000E+00 -9.7075891857491E-02  2.3788752730277E-01
   223  2.2200000000000E+00 -9.2669988750057E-02  2.1659600710633E-01
   224  2.2300000000000E+00 -8.8281442915410E-02  1.9600041779767E-01
   225  2.2400000000000E+00 -8.3922780363926E-02  1.7612603991674E-01
   226  2.2500000000000E+00 -7.9605921400350E-02  1.5699543236572E-01
   227  2.2600000000000E+00 -7.5342155718597E-02  1.3862838246546E-01
   228  2.2700000000000E+00 -7.1142120507123E-02  1.2104186893425E-01
   229  2.2800000000000E+00 -6.7015781627532E-02  1.0425003787268E-01
   230  2.2900000000000E+00 -6.2972417916893E-02  8.8264191787398E-02
   231  2.3000000000000E+00 -5.9020608644774E-02  7.3092791605047E-02
   232  2.3100000000000E+00 -5.5168224144083E-02  5.8741471578448E-02
   233  2.3200000000000E+00 -5.1422419611548E-02  4.5213066891811E-02
   234  2.3300000000000E+00 -4.7789632061285E-02  3.2507653722095E-02
   235  2.3400000000000E+00 -4.4275580398437E-02  2.0622601447589E-02
   236  2.3500000000000E+00 -4.0885268563832E-02  9.5526366308899E-03
   237  2.3600000000000E+00 -3.7622991683060E-02 -7.1008166498660E-04
   238  2.3700000000000E+00 -3.4492345138830E-02 -1.0175875724232E-02
   239  2.3800000000000E+00 -3.1496236475954E-02 -1.8857452723516E-02
   240  2.3900000000000E+00 -2.8636900026519E-02 -2.6769798590713E-02
   241  2.4000000000000E+00 -2.5915914134301E-02 -3.3930062823239E-02
   242  2.4100000000000E+00 -2.3334220845980E-02 -4.0357434954265E-02
   243  2.4200000000000E+00 -2.0892147923482E-02 -4.6073013402543E-02
   244  2.4300000000000E+00 -1.8589433020306E-02 -5.1099667480066E-02
   245  2.4400000000000E+00 -1.6425249857378E-02 -5.5461893355333E-02
   246  2.4500000000000E+00 -1.4398236226182E-02 -5.9185664796604E-02
   247  2.4600000000000E+00 -1.2506523635610E-02 -6.2298279552656E-02
   248  2.4700000000000E+00 -1.0747768416028E-02 -6.4828202233431E-02
   249  2.4800000000000E+00 -9.1191840895506E-03 -6.6804904568080E-02
   250  2.4900000000000E+00 -7.6175748076315E-03 -6.8258703931874E-02
   251  2.5000000000000E+00 -6.2393696582207E-03 -6.9220601022736E-02
   252  2.5100000000000E+00 -4.9806576414286E-03 -6.9722117577946E-02
   253  2.5200000000000E+00 -3.8372231113516E-03 -6.9795135006825E-02
   254  2.5300000000000E+00 -2.8045814853282E-03 -6.9471734793598E-02
   255  2.5400000000000E+00 -1.8780150198056E-03 -6.8784041530374E-02
   256  2.5500000000000E+00 -1.0526084577222E-03 -6.7764069394928E-02
   257  2.5600000000000E+00 -3.2328435852270E-04 -6.6443572855574E-02
   258  2.5700000000000E+00  3.1516208052078E-04 -6.4853902394400E-02
   259  2.5800000000000E+00  8.6802888838221E-04 -6.3025865955198E-02
   260  2.5900000000000E+00  1.3406740398442E-03 -6.0989596791310E-02
   261  2.6000000000000E+00  1.7384832033238E-03 -5.8774428398262E-02
   262  2.6100000000000E+00  2.0668386645685E-03 -5.6408777085651E-02
   263  2.6200000000000E+00  2.3310895723773E-03 -5.3920032738614E-02
   264  2.6300000000000E+00  2.5365236490857E-03 -5.1334458298304E-02
   265  2.6400000000000E+00  2.6883404783317E-03 -4.8677098343618E-02
   266  2.6500000000000E+00  2.7916264876629E-03 -4.5971697182232E-02
   267  2.6600000000000E+00  2.8513317286494E-03 -4.3240626784694E-02
   268  2.6700000000000E+00  2.8722485283370E-03 -4.0504824760857E-02
   269  2.6800000000000E+00  2.8589920986559E-03 -3.7783742637513E-02
   270  2.6900000000000E+00  2.8159831569152E-03 -3.5095304538400E-02
   271  2.7000000000000E+00  2.7474325939626E-03 -3.2455876294314E-02
   272  2.7100000000000E+00  2.6573282425546E-03 -2.9880245081746E-02
   273  2.7200000000000E+00  2.5494237411873E-03 -2.7381609428228E-02
   274  2.7300000000000E+00  2.4272295079717E-03 -2.4971579511753E-02
   275  2.7400000000000E+00  2.2940058194885E-03 -2.2660187590708E-02
   276  2.7500000000000E+00  2.1527579531436E-03 -2.0455908241006E-02
   277  2.7600000000000E+00  2.0062333783429E-03 -1.8365688194810E-02
   278  2.7700000000000E+00  1.8569209310591E-03 -1.6394985351349E-02
   279  2.7800000000000E+00  1.7070519117924E-03 -1.4547816556943E-02
   280  2.7900000000000E+00  1.5586030460315E-03 -1.2826813744209E-02
   281  2.8000000000000E+00  1.4133012015399E-03 -1.1233287831008E-02
   282  2.8100000000000E+00  1.2726297878767E-03 -9.7672999114512E-03
   283  2.8200000000000E+00  1.1378367205780E-03 -8.4277390888112E-03
   284  2.8300000000000E+00  1.0099438374893E-03 -7.2124063257049E-03
   285  2.8400000000000E+00  8.8975765503992E-04 -6.1181036830495E-03
   286  2.8500000000000E+00  7.7788132027328E-04 -5.1407281958726E-03
   287  2.8600000000000E+00  6.7472763931926E-04 -4.2753697299957E-03
   288  2.8700000000000E+00  5.8053438338220E-04 -3.5164169523084E-03
   289  2.8800000000000E+00  4.9537202426118E-04 -2.8576354254458E-03
   290  2.8900000000000E+00  4.1916920249978E-04 -2.2923095300327E-03
   291  2.9000000000000E+00  3.5173346402342E-04 -1.8133660199048E-03
   292  2.9100000000000E+00  2.9274570597369E-04 -1.4134021833607E-03
   293  2.9200000000000E+00  2.4176830477261E-04 -1.0847615585718E-03
   294  2.9300000000000E+00  1.9790084642779E-04 -8.1832526505788E-04
   295  2.9400000000000E+00  1.5998863502261E-04 -6.0431218844972E-04
   296  2.9500000000000E+00  1.2745308047572E-04 -4.3533665395947E-04
   297  2.9600000000000E+00  9.9975816378688E-05 -3.0530297344099E-04
   298  2.9700000000000E+00  7.7064826476961E-05 -2.0787025608639E-04
   299  2.9800000000000E+00  5.8231684166444E-05 -1.3712900046239E-04
   300  2.9900000000000E+00  4.2994730837530E-05 -8.7644096133811E-05
   301  3.0000000000000E+00  3.0877092776450E-05 -5.4477050128021E-05
   302  3.0100000000000E+00  2.1424532391415E-05 -3.3276978715293E-05
   303  3.0200000000000E+00  1.4212412373072E-05 -2.0329242861250E-05
   304  3.0300000000000E+00  8.8577286222018E-06 -1.2624774119865E-05
   305  3.0400000000000E+00  5.0119490742465E-06 -7.8239350411705E-06
   306  3.0500000000000E+00  2.3895647078622E-06 -4.4244653835597E-06
   307  3.0600000000000E+00  8.1073075492733E-07 -1.8795361409215E-06
   308  3.0700000000000E+00  7.0538677586648E-08 -1.7916787358202E-07
   309  3.0800000000000E+00 -1.1443374998817E-07  4.1340706136585E-07
   310  3.0900000000000E+00 -4.0889158230621E-08  1.5557159997478E-07
   311  3.10  0. -0.
   312  3.11  0. -0.
   313  3.12 -0.  0.
   314  3.13 -0.  0.
   315  3.14  0. -0.
   316  3.15  0.  0.
   317  3.16  0.  0.
   318  3.17  0.  0.
   319  3.18  0.  0.
   320  3.19  0.  0.
   321  3.20  0.  0.
   322  3.21  0.  0.
   323  3.22  0.  0.
   324  3.23  0.  0.
   325  3.24  0.  0.
   326  3.25  0.  0.
   327  3.26  0.  0.
   328  3.27  0.  0.
   329  3.28  0.  0.
   330  3.29  0.  0.
   331  3.30  0.  0.
   332  3.31  0.  0.
   333  3.32  0.  0.
   334  3.33  0.  0.
   335  3.34  0.  0.
   336  3.35  0.  0.
   337  3.36  0.  0.
   338  3.37  0.  0.
   339  3.38  0.  0.
   340  3.39  0.  0.
   341  3.40  0.  0.
   342  3.41  0.  0.
   343  3.42  0.  0.
   344  3.43  0.  0.
   345  3.44  0.  0.
   346  3.45  0.  0.
   347  3.46  0.  0.
   348  3.47  0.  0.
   349  3.48  0.  0.
   350  3.49  0.  0.
   351  3.50  0.  0.
   352  3.51  0.  0.
   353  3.52  0.  0.
   354  3.53  0.  0.
   355  3.54  0.  0.
   356  3.55  0.  0.
   357  3.56  0.  0.
   358  3.57  0.  0.
   359  3.58  0.  0.
   360  3.59  0.  0.
   361  3.60  0.  0.
   362  3.61  0.  0.
   363  3.62  0.  0.
   364  3.63  0.  0.
   365  3.64  0.  0.
   366  3.65  0.  0.
   367  3.66  0.  0.
   368  3.67  0.  0.
   369  3.68  0.  0.
   370  3.69  0.  0.
   371  3.70  0.  0.
   372  3.71  0.  0.
   373  3.72  0.  0.
   374  3.73  0.  0.
   375  3.74  0.  0.
   376  3.75  0.  0.
   377  3.76  0.  0.
   378  3.77  0.  0.
   379  3.78  0.  0.
   380  3.79  0.  0.
   381  3.80  0.  0.
   382  3.81  0.  0.
   383  3.82  0.  0.
   384  3.83  0.  0.
   385  3.84  0.  0.
   386  3.85  0.  0.
   387  3.86  0.  0.
   388  3.87  0.  0.
   389  3.88  0.  0.
   390  3.89  0.  0.
   391  3.90  0.  0.
   392  3.91  0.  0.
   393  3.92  0.  0.
   394  3.93  0.  0.
   395  3.94  0.  0.
   396  3.95  0.  0.
   397  3.96  0.  0.
   398  3.97  0.  0.
   399  3.98  0.  0.
   400  3.99  0.  0.
   401  4.00  0.  0.
   402  4.01  0.  0.
   403  4.02  0.  0.
   404  4.03  0.  0.
   405  4.04  0.  0.
   406  4.05  0.  0.
   407  4.06  0.  0.
   408  4.07  0.  0.
   409  4.08  0.  0.
   410  4.09  0.  0.
   411  4.10  0.  0.
   412  4.11  0.  0.
   413  4.12  0.  0.
   414  4.13  0.  0.
   415  4.14  0.  0.
   416  4.15  0.  0.
   417  4.16  0.  0.
   418  4.17  0.  0.
   419  4.18  0.  0.
   420  4.19  0.  0.
   421  4.20  0.  0.
   422  4.21  0.  0.
   423  4.22  0.  0.
   424  4.23  0.  0.
   425  4.24  0.  0.
   426  4.25  0.  0.
   427  4.26  0.  0.
   428  4.27  0.  0.
   429  4.28  0.  0.
   430  4.29  0.  0.
   431  4.30  0.  0.
   432  4.31  0.  0.
   433  4.32  0.  0.
   434  4.33  0.  0.
   435  4.34  0.  0.
   436  4.35  0.  0.
   437  4.36  0.  0.
   438  4.37  0.  0.
   439  4.38  0.  0.
   440  4.39  0.  0.
   441  4.40  0.  0.
   442  4.41  0.  0.
   443  4.42  0.  0.
   444  4.43  0.  0.
   445  4.44  0.  0.
   446  4.45  0.  0.
   447  4.46  0.  0.
   448  4.47  0.  0.
   449  4.48  0.  0.
   450  4.49  0.  0.
   451  4.50  0.  0.
   452  4.51  0.  0.
   453  4.52  0.  0.
   454  4.53  0.  0.
   455  4.54  0.  0.
   456  4.55  0.  0.
   457  4.56  0.  0.
   458  4.57  0.  0.
   459  4.58  0.  0.
   460  4.59  0.  0.
   461  4.60  0.  0.
   462  4.61  0.  0.
   463  4.62  0.  0.
   464  4.63  0.  0.
   465  4.64  0.  0.
   466  4.65  0.  0.
   467  4.66  0.  0.
   468  4.67  0.  0.
   469  4.68  0.  0.
   470  4.69  0.  0.
   471  4.70  0.  0.
   472  4.71  0.  0.
   473  4.72  0.  0.
   474  4.73  0.  0.
   475  4.74  0.  0.
   476  4.75  0.  0.
   477  4.76  0.  0.
   478  4.77  0.  0.
   479  4.78  0.  0.
   480  4.79  0.  0.
   481  4.80  0.  0.
   482  4.81  0.  0.
   483  4.82  0.  0.
   484  4.83  0.  0.
   485  4.84  0.  0.
   486  4.85  0.  0.
   487  4.86  0.  0.
   488  4.87  0.  0.
   489  4.88  0.  0.
   490  4.89  0.  0.
   491  4.90  0.  0.
   492  4.91  0.  0.
   493  4.92  0.  0.
   494  4.93  0.  0.
   495  4.94  0.  0.
   496  4.95  0.  0.
   497  4.96  0.  0.
   498  4.97  0.  0.
   499  4.98  0.  0.
   500  4.99  0.  0.
   501  5.00  0.  0.
   502  5.01  0.  0.
   503  5.02  0.  0.
   504  5.03  0.  0.
   505  5.04  0.  0.
   506  5.05  0.  0.
   507  5.06  0.  0.
   508  5.07  0.  0.
   509  5.08  0.  0.
   510  5.09  0.  0.
   511  5.10  0.  0.
   512  5.11  0.  0.
   513  5.12  0.  0.
   514  5.13  0.  0.
   515  5.14  0.  0.
   516  5.15  0.  0.
   517  5.16  0.  0.
   518  5.17  0.  0.
   519  5.18  0.  0.
   520  5.19  0.  0.
   521  5.20  0.  0.
   522  5.21  0.  0.
   523  5.22  0.  0.
   524  5.23  0.  0.
   525  5.24  0.  0.
   526  5.25  0.  0.
   527  5.26  0.  0.
   528  5.27  0.  0.
   529  5.28  0.  0.
   530  5.29  0.  0.
   531  5.30  0.  0.
   532  5.31  0.  0.
   533  5.32  0.  0.
   534  5.33  0.  0.
   535  5.34  0.  0.
   536  5.35  0.  0.
   537  5.36  0.  0.
   538  5.37  0.  0.
   539  5.38  0.  0.
   540  5.39  0.  0.
   541  5.40  0.  0.
   542  5.41  0.  0.
   543  5.42  0.  0.
   544  5.43  0.  0.
   545  5.44  0.  0.
   546  5.45  0.  0.
   547  5.46  0.  0.
   548  5.47  0.  0.
   549  5.48  0.  0.
   550  5.49  0.  0.
   551  5.50  0.  0.
   552  5.51  0.  0.
   553  5.52  0.  0.
   554  5.53  0.  0.
   555  5.54  0.  0.
   556  5.55  0.  0.
   557  5.56  0.  0.
   558  5.57  0.  0.
   559  5.58  0.  0.
   560  5.59  0.  0.
   561  5.60  0.  0.
   562  5.61  0.  0.
   563  5.62  0.  0.
   564  5.63  0.  0.
   565  5.64  0.  0.
   566  5.65  0.  0.
   567  5.66  0.  0.
   568  5.67  0.  0.
   569  5.68  0.  0.
   570  5.69  0.  0.
   571  5.70  0.  0.
   572  5.71  0.  0.
   573  5.72  0.  0.
   574  5.73  0.  0.
   575  5.74  0.  0.
   576  5.75  0.  0.
   577  5.76  0.  0.
   578  5.77  0.  0.
   579  5.78  0.  0.
   580  5.79  0.  0.
   581  5.80  0.  0.
   582  5.81  0.  0.
   583  5.82  0.  0.
   584  5.83  0.  0.
   585  5.84  0.  0.
   586  5.85  0.  0.
   587  5.86  0.  0.
   588  5.87  0.  0.
   589  5.88  0.  0.
   590  5.89  0.  0.
   591  5.90  0.  0.
   592  5.91  0.  0.
   593  5.92  0.  0.
   594  5.93  0.  0.
   595  5.94  0.  0.
   596  5.95  0.  0.
   597  5.96  0.  0.
   598  5.97  0.  0.
   599  5.98  0.  0.
   600  5.99  0.  0.
   1                         4.1831333386920E+00  4.5258062264148E-01
     1  0.0000000000000E+00 -5.4752175016048E-12  9.9490641419786E-12
     2  1.0000000000000E-02  2.7655187924093E-04 -2.1040068298573E-04
     3  2.0000000000000E-02  1.1060475699415E-03 -8.4136059350878E-04
     4  3.0000000000000E-02  2.4880068316332E-03 -1.8921527832615E-03
     5  4.0000000000000E-02  4.4216279349657E-03 -3.3615639000468E-03
     6  5.0000000000000E-02  6.9057856786805E-03 -5.2478915481859E-03
     7  6.0000000000000E-02  9.9390286329665E-03 -7.5489406287916E-03
     8  7.0000000000000E-02  1.3519575628665E-02 -1.0262018695365E-02
     9  8.0000000000000E-02  1.7645311517264E-02 -1.3383930370126E-02
    10  9.0000000000000E-02  2.2313782231864E-02 -1.6910970875928E-02
    11  1.0000000000000E-01  2.7522189184521E-02 -2.0838918748111E-02
    12  1.1000000000000E-01  3.3267383040372E-02 -2.5163027799523E-02
    13  1.2000000000000E-01  3.9545856913775E-02 -2.9878018420670E-02
    14  1.3000000000000E-01  4.6353739036353E-02 -3.4978068305164E-02
    15  1.4000000000000E-01  5.3686784951215E-02 -4.0456802698372E-02
    16  1.5000000000000E-01  6.1540369291834E-02 -4.6307284274530E-02
    17  1.6000000000000E-01  6.9909477207910E-02 -5.2522002754194E-02
    18  1.7000000000000E-01  7.8788695504212E-02 -5.9092864380188E-02
    19  1.8000000000000E-01  8.8172203561715E-02 -6.6011181375662E-02
    20  1.9000000000000E-01  9.8053764113308E-02 -7.3267661512837E-02
    21  2.0000000000000E-01  1.0842671394908E-01 -8.0852397925161E-02
    22  2.1000000000000E-01  1.1928395462849E-01 -8.8754859299193E-02
    23  2.2000000000000E-01  1.3061794327864E-01 -9.6963880585314E-02
    24  2.3000000000000E-01  1.4242068355972E-01 -1.0546765436834E-01