Sn    ONCVPSP-4.0.1  r_core=   3.01399   2.45929   3.01399
     50.0000     14.0000      230118    zatom,zion,pspd
     8       2   2     4   600     0    pspcod,pspxc,lmax,lloc,mmax,r2well
  5.99000000  6.50000000  0.00000000    rchrg fchrg qchrg
     2     2     2     0     0    nproj
     1     1           extension_switch
   0                         5.3579809134510E+00  9.4929181328566E-01
     1  0.0000000000000E+00  8.3977269582647E-13 -1.4185874697148E-12
     2  1.0000000000000E-02  2.9356915928456E-02 -1.7545871579215E-02
     3  2.0000000000000E-02  5.8685632144763E-02 -3.5045664105957E-02
     4  3.0000000000000E-02  8.7957997348488E-02 -5.2453406683253E-02
     5  4.0000000000000E-02  1.1714595699777E-01 -6.9723344546389E-02
     6  5.0000000000000E-02  1.4622160152624E-01 -8.6810046681791E-02
     7  6.0000000000000E-02  1.7515721436452E-01 -1.0366851290819E-01
     8  7.0000000000000E-02  2.0392531970011E-01 -1.2025428023912E-01
     9  8.0000000000000E-02  2.3249872990868E-01 -1.3652352834429E-01
    10  9.0000000000000E-02  2.6085059258872E-01 -1.5243318392588E-01
    11  1.0000000000000E-01  2.8895443713033E-01 -1.6794102382347E-01
    12  1.1000000000000E-01  3.1678422074750E-01 -1.8300577665931E-01
    13  1.2000000000000E-01  3.4431437390174E-01 -1.9758722283311E-01
    14  1.3000000000000E-01  3.7151984504347E-01 -2.1164629267295E-01
    15  1.4000000000000E-01  3.9837614459547E-01 -2.2514516254621E-01
    16  1.5000000000000E-01  4.2485938810150E-01 -2.3804734873174E-01
    17  1.6000000000000E-01  4.5094633846080E-01 -2.5031779885181E-01
    18  1.7000000000000E-01  4.7661444716776E-01 -2.6192298065977E-01
    19  1.8000000000000E-01  5.0184189447427E-01 -2.7283096797688E-01
    20  1.9000000000000E-01  5.2660762839026E-01 -2.8301152356971E-01
    21  2.0000000000000E-01  5.5089140243655E-01 -2.9243617875747E-01
    22  2.1000000000000E-01  5.7467381206268E-01 -3.0107830953716E-01
    23  2.2000000000000E-01  5.9793632964087E-01 -3.0891320901351E-01
    24  2.3000000000000E-01  6.2066133794623E-01 -3.1591815591985E-01
    25  2.4000000000000E-01  6.4283216203248E-01 -3.2207247901649E-01
    26  2.5000000000000E-01  6.6443309941187E-01 -3.2735761715361E-01
    27  2.6000000000000E-01  6.8544944844730E-01 -3.3175717478737E-01
    28  2.7000000000000E-01  7.0586753486536E-01 -3.3525697274000E-01
    29  2.8000000000000E-01  7.2567473629849E-01 -3.3784509399818E-01
    30  2.9000000000000E-01  7.4485950476613E-01 -3.3951192434762E-01
    31  3.0000000000000E-01  7.6341138700518E-01 -3.4025018764731E-01
    32  3.1000000000000E-01  7.8132104256226E-01 -3.4005497555274E-01
    33  3.2000000000000E-01  7.9858025956211E-01 -3.3892377150465E-01
    34  3.3000000000000E-01  8.1518196806907E-01 -3.3685646880835E-01
    35  3.4000000000000E-01  8.3112025096190E-01 -3.3385538263798E-01
    36  3.5000000000000E-01  8.4639035224568E-01 -3.2992525581080E-01
    37  3.6000000000000E-01  8.6098868272869E-01 -3.2507325818854E-01
    38  3.7000000000000E-01  8.7491282299708E-01 -3.1930897957579E-01
    39  3.8000000000000E-01  8.8816152362513E-01 -3.1264441599984E-01
    40  3.9000000000000E-01  9.0073470256509E-01 -3.0509394927175E-01
    41  4.0000000000000E-01  9.1263343966664E-01 -2.9667431974522E-01
    42  4.1000000000000E-01  9.2385996828307E-01 -2.8740459220759E-01
    43  4.2000000000000E-01  9.3441766392876E-01 -2.7730611485626E-01
    44  4.3000000000000E-01  9.4431102996039E-01 -2.6640247133408E-01
    45  4.4000000000000E-01  9.5354568026293E-01 -2.5471942581803E-01
    46  4.5000000000000E-01  9.6212831893015E-01 -2.4228486117796E-01
    47  4.6000000000000E-01  9.7006671693912E-01 -2.2912871024488E-01
    48  4.7000000000000E-01  9.7736968582758E-01 -2.1528288025219E-01
    49  4.8000000000000E-01  9.8404704839357E-01 -2.0078117053802E-01
    50  4.9000000000000E-01  9.9010960644708E-01 -1.8565918362167E-01
    51  5.0000000000000E-01  9.9556910565440E-01 -1.6995422979343E-01
    52  5.1000000000000E-01  1.0004381975268E+00 -1.5370522538281E-01
    53  5.2000000000000E-01  1.0047303986168E+00 -1.3695258489726E-01
    54  5.3000000000000E-01  1.0084600469964E+00 -1.1973810724978E-01
    55  5.4000000000000E-01  1.0116422561035E+00 -1.0210485632113E-01
    56  5.5000000000000E-01  1.0142928660546E+00 -8.4097036128760E-02
    57  5.6000000000000E-01  1.0164283925322E+00 -6.5759860901682E-02
    58  5.7000000000000E-01  1.0180659733696E+00 -4.7139420386379E-02
    59  5.8000000000000E-01  1.0192233129645E+00 -2.8282540735076E-02
    60  5.9000000000000E-01  1.0199186246648E+00 -9.2366413527889E-03
    61  6.0000000000000E-01  1.0201705712834E+00  9.9504118959122E-03
    62  6.1000000000000E-01  1.0199982039050E+00  2.9230456695792E-02
    63  6.2000000000000E-01  1.0194208991631E+00  4.8555187058329E-02
    64  6.3000000000000E-01  1.0184582951723E+00  6.7876308399026E-02
    65  6.4000000000000E-01  1.0171302263102E+00  8.7145694426034E-02
    66  6.5000000000000E-01  1.0154566570557E+00  1.0631554533280E-01
    67  6.6000000000000E-01  1.0134576150927E+00  1.2533854677061E-01
    68  6.7000000000000E-01  1.0111531239030E+00  1.4416802906133E-01
    69  6.8000000000000E-01  1.0085631350718E+00  1.6275812609773E-01
    70  6.9000000000000E-01  1.0057074605414E+00  1.8106393336669E-01
    71  7.0000000000000E-01  1.0026057050500E+00  1.9904166452191E-01
    72  7.1000000000000E-01  9.9927719899818E-01  2.1664880592506E-01
    73  7.2000000000000E-01  9.9574093198884E-01  2.3384426856970E-01
    74  7.3000000000000E-01  9.9201548728976E-01  2.5058853679981E-01
    75  7.4000000000000E-01  9.8811897746726E-01  2.6684381323453E-01
    76  7.5000000000000E-01  9.8406898144186E-01  2.8257415931337E-01
    77  7.6000000000000E-01  9.7988248321489E-01  2.9774563088091E-01
    78  7.7000000000000E-01  9.7557581251387E-01  3.1232640823796E-01
    79  7.8000000000000E-01  9.7116458760101E-01  3.2628692009611E-01
    80  7.9000000000000E-01  9.6666366048568E-01  3.3959996088549E-01
    81  8.0000000000000E-01  9.6208706477609E-01  3.5224080088138E-01
    82  8.1000000000000E-01  9.5744796639943E-01  3.6418728863311E-01
    83  8.2000000000000E-01  9.5275861741215E-01  3.7541994519970E-01
    84  8.3000000000000E-01  9.4803031311347E-01  3.8592204972006E-01
    85  8.4000000000000E-01  9.4327335266578E-01  3.9567971587125E-01
    86  8.5000000000000E-01  9.3849700341458E-01  4.0468195879678E-01
    87  8.6000000000000E-01  9.3370946908907E-01  4.1292075211767E-01
    88  8.7000000000000E-01  9.2891786205170E-01  4.2039107467172E-01
    89  8.8000000000000E-01  9.2412817975105E-01  4.2709094666187E-01
    90  8.9000000000000E-01  9.1934528551785E-01  4.3302145493157E-01
    91  9.0000000000000E-01  9.1457289382854E-01  4.3818676712415E-01
    92  9.1000000000000E-01  9.0981356014398E-01  4.4259413452417E-01
    93  9.2000000000000E-01  9.0506867541417E-01  4.4625388342114E-01
    94  9.3000000000000E-01  9.0033846532179E-01  4.4917939487997E-01
    95  9.4000000000000E-01  8.9562199431893E-01  4.5138707284769E-01
    96  9.5000000000000E-01  8.9091717449243E-01  4.5289630057224E-01
    97  9.6000000000000E-01  8.8622077927364E-01  4.5372938535630E-01
    98  9.7000000000000E-01  8.8152846198882E-01  4.5391149171699E-01
    99  9.8000000000000E-01  8.7683477922586E-01  4.5347056307048E-01
   100  9.9000000000000E-01  8.7213321897297E-01  4.5243723210914E-01
   101  1.0000000000000E+00  8.6741623346441E-01  4.5084472008734E-01
   102  1.0100000000000E+00  8.6267527664766E-01  4.4872872528049E-01
   103  1.0200000000000E+00  8.5790084616639E-01  4.4612730092957E-01
   104  1.0300000000000E+00  8.5308252973289E-01  4.4308072303091E-01
   105  1.0400000000000E+00  8.4820905574399E-01  4.3963134837710E-01
   106  1.0500000000000E+00  8.4326834797485E-01  4.3582346330009E-01
   107  1.0600000000000E+00  8.3824758416556E-01  4.3170312361158E-01
   108  1.0700000000000E+00  8.3313325829743E-01  4.2731798627777E-01
   109  1.0800000000000E+00  8.2791124633740E-01  4.2271713340611E-01
   110  1.0900000000000E+00  8.2256687521232E-01  4.1795088915996E-01
   111  1.1000000000000E+00  8.1708499475809E-01  4.1307063025347E-01
   112  1.1100000000000E+00  8.1145005237370E-01  4.0812859071214E-01
   113  1.1200000000000E+00  8.0564617009548E-01  4.0317766161630E-01
   114  1.1300000000000E+00  7.9965722379384E-01  3.9827118657230E-01
   115  1.1400000000000E+00  7.9346692418268E-01  3.9346275368186E-01
   116  1.1500000000000E+00  7.8705889932057E-01  3.8880598480193E-01
   117  1.1600000000000E+00  7.8041677827377E-01  3.8435432290625E-01
   118  1.1700000000000E+00  7.7352427560242E-01  3.8016081837503E-01
   119  1.1800000000000E+00  7.6636527632513E-01  3.7627791505113E-01
   120  1.1900000000000E+00  7.5892392101149E-01  3.7275723690902E-01
   121  1.2000000000000E+00  7.5118469064862E-01  3.6964937618739E-01
   122  1.2100000000000E+00  7.4313249092575E-01  3.6700368383672E-01
   123  1.2200000000000E+00  7.3475273558010E-01  3.6486806312996E-01
   124  1.2300000000000E+00  7.2603142844863E-01  3.6328876727697E-01
   125  1.2400000000000E+00  7.1695524387281E-01  3.6231020187292E-01
   126  1.2500000000000E+00  7.0751160510794E-01  3.6197473299499E-01
   127  1.2600000000000E+00  6.9768876039465E-01  3.6232250174378E-01
   128  1.2700000000000E+00  6.8747585635749E-01  3.6339124600229E-01
   129  1.2800000000000E+00  6.7686300840519E-01  3.6521613015958E-01
   130  1.2900000000000E+00  6.6584136781754E-01  3.6782958351553E-01
   131  1.3000000000000E+00  6.5440318521639E-01  3.7126114804967E-01
   132  1.3100000000000E+00  6.4254187013210E-01  3.7553733619988E-01
   133  1.3200000000000E+00  6.3025204639195E-01  3.8068149925600E-01
   134  1.3300000000000E+00  6.1752960307379E-01  3.8671370692988E-01
   135  1.3400000000000E+00  6.0437174078628E-01  3.9365063861667E-01
   136  1.3500000000000E+00  5.9077701305610E-01  4.0150548681265E-01
   137  1.3600000000000E+00  5.7674536262337E-01  4.1028787310278E-01
   138  1.3700000000000E+00  5.6227815246757E-01  4.2000377707671E-01
   139  1.3800000000000E+00  5.4737819140943E-01  4.3065547847527E-01
   140  1.3900000000000E+00  5.3204975415696E-01  4.4224151281118E-01
   141  1.4000000000000E+00  5.1629859568879E-01  4.5475664064745E-01
   142  1.4100000000000E+00  5.0013195989253E-01  4.6819183065521E-01
   143  1.4200000000000E+00  4.8355858240142E-01  4.8253425651067E-01
   144  1.4300000000000E+00  4.6658868759883E-01  4.9776730762691E-01
   145  1.4400000000000E+00  4.4923397978622E-01  5.1387061365298E-01
   146  1.4500000000000E+00  4.3150762853684E-01  5.3082008260809E-01
   147  1.4600000000000E+00  4.1342424828444E-01  5.4858795245526E-01
   148  1.4700000000000E+00  3.9499987222246E-01  5.6714285585487E-01
   149  1.4800000000000E+00  3.7625192061598E-01  5.8644989777613E-01
   150  1.4900000000000E+00  3.5719916365502E-01  6.0647074558215E-01
   151  1.5000000000000E+00  3.3786167900327E-01  6.2716373114478E-01
   152  1.5100000000000E+00  3.1826080422206E-01  6.4848396448551E-01
   153  1.5200000000000E+00  2.9841908427367E-01  6.7038345838287E-01
   154  1.5300000000000E+00  2.7836021433225E-01  6.9281126333134E-01
   155  1.5400000000000E+00  2.5810897815326E-01  7.1571361218552E-01
   156  1.5500000000000E+00  2.3769118227463E-01  7.3903407377310E-01
   157  1.5600000000000E+00  2.1713358634348E-01  7.6271371471471E-01
   158  1.5700000000000E+00  1.9646382988176E-01  7.8669126864522E-01
   159  1.5800000000000E+00  1.7571035582266E-01  8.1090331199192E-01
   160  1.5900000000000E+00  1.5490233116626E-01  8.3528444542907E-01
   161  1.6000000000000E+00  1.3406956511823E-01  8.5976748009688E-01
   162  1.6100000000000E+00  1.1324242508909E-01  8.8428362764493E-01
   163  1.6200000000000E+00  9.2451750943620E-02  9.0876269313721E-01
   164  1.6300000000000E+00  7.1728767900001E-02  9.3313326983667E-01
   165  1.6400000000000E+00  5.1104998487026E-02  9.5732293487305E-01
   166  1.6500000000000E+00  3.0612173974012E-02  9.8125844478812E-01
   167  1.6600000000000E+00  1.0282145692814E-02  1.0048659299476E+00
   168  1.6700000000000E+00 -9.8532033259544E-03  1.0280710868086E+00
   169  1.6800000000000E+00 -2.9762045977219E-02  1.0507993669359E+00
   170  1.6900000000000E+00 -4.9412697540278E-02  1.0729761618211E+00
   171  1.7000000000000E+00 -6.8773700717218E-02  1.0945269876660E+00
   172  1.7100000000000E+00 -8.7813907982074E-02  1.1153776375969E+00
   173  1.7200000000000E+00 -1.0650256658774E-01  1.1354545297770E+00
   174  1.7300000000000E+00 -1.2480941862106E-01  1.1546855442194E+00
   175  1.7400000000000E+00 -1.4270480625553E-01  1.1730006926483E+00
   176  1.7500000000000E+00 -1.6015976809759E-01  1.1903323336610E+00
   177  1.7600000000000E+00 -1.7714613310227E-01  1.2066153919386E+00
   178  1.7700000000000E+00 -1.9363661159741E-01  1.2217875642599E+00
   179  1.7800000000000E+00 -2.0960488318600E-01  1.2357895167556E+00
   180  1.7900000000000E+00 -2.2502568126457E-01  1.2485650728299E+00
   181  1.8000000000000E+00 -2.3987487389784E-01  1.2600613910528E+00
   182  1.8100000000000E+00 -2.5412954080441E-01  1.2702291324509E+00
   183  1.8200000000000E+00 -2.6776804622082E-01  1.2790226166633E+00
   184  1.8300000000000E+00 -2.8077010742565E-01  1.2863999664626E+00
   185  1.8400000000000E+00 -2.9311685871926E-01  1.2923232401818E+00
   186  1.8500000000000E+00 -3.0479091067056E-01  1.2967585516262E+00
   187  1.8600000000000E+00 -3.1577640445726E-01  1.2996761770912E+00
   188  1.8700000000000E+00 -3.2605906114286E-01  1.3010506491496E+00
   189  1.8800000000000E+00 -3.3562622575023E-01  1.3008608369138E+00
   190  1.8900000000000E+00 -3.4446690600848E-01  1.2990900125251E+00
   191  1.9000000000000E+00 -3.5257180566804E-01  1.2957259036648E+00
   192  1.9100000000000E+00 -3.5993335229607E-01  1.2907607319297E+00
   193  1.9200000000000E+00 -3.6654571948272E-01  1.2841912369597E+00
   194  1.9300000000000E+00 -3.7240484340711E-01  1.2760186862506E+00
   195  1.9400000000000E+00 -3.7750843373033E-01  1.2662488706358E+00
   196  1.9500000000000E+00 -3.8185597880099E-01  1.2548920854618E+00
   197  1.9600000000000E+00 -3.8544874517775E-01  1.2419630975347E+00
   198  1.9700000000000E+00 -3.8828977149143E-01  1.2274810979553E+00
   199  1.9800000000000E+00 -3.9038385668790E-01  1.2114696410131E+00
   200  1.9900000000000E+00 -3.9173754271078E-01  1.1939565693479E+00
   201  2.0000000000000E+00 -3.9235909170122E-01  1.1749739256367E+00
   202  2.0100000000000E+00 -3.9225845780969E-01  1.1545578511070E+00
   203  2.0200000000000E+00 -3.9144725373180E-01  1.1327484712174E+00
   204  2.0300000000000E+00 -3.8993871209722E-01  1.1095897688919E+00
   205  2.0400000000000E+00 -3.8774764185741E-01  1.0851294457308E+00
   206  2.0500000000000E+00 -3.8489037983332E-01  1.0594187716636E+00
   207  2.0600000000000E+00 -3.8138473759982E-01  1.0325124235417E+00
   208  2.0700000000000E+00 -3.7724994389876E-01  1.0044683132108E+00
   209  2.0800000000000E+00 -3.7250658278601E-01  9.7534740562998E-01
   210  2.0900000000000E+00 -3.6717652773165E-01  9.4521352764186E-01
   211  2.1000000000000E+00 -3.6128287190521E-01  9.1413316802528E-01
   212  2.1100000000000E+00 -3.5484985488874E-01  8.8217526948901E-01
   213  2.1200000000000E+00 -3.4790278607311E-01  8.4941101329407E-01
   214  2.1300000000000E+00 -3.4046796500166E-01  8.1591359721272E-01
   215  2.1400000000000E+00 -3.3257259893551E-01  7.8175800755418E-01
   216  2.1500000000000E+00 -3.2424471792255E-01  7.4702078600635E-01
   217  2.1600000000000E+00 -3.1551308765966E-01  7.1177979205732E-01
   218  2.1700000000000E+00 -3.0640712044453E-01  6.7611396177657E-01
   219  2.1800000000000E+00 -2.9695678451820E-01  6.4010306374487E-01
   220  2.1900000000000E+00 -2.8719251210453E-01  6.0382745293139E-01
   221  2.2000000000000E+00 -2.7714510645527E-01  5.6736782332169E-01
   222  2.2100000000000E+00 -2.6684564821269E-01  5.3080496010447E-01
   223  2.2200000000000E+00 -2.5632540140250E-01  4.9421949222486E-01
   224  2.2300000000000E+00 -2.4561571937002E-01  4.5769164610992E-01
   225  2.2400000000000E+00 -2.3474795097180E-01  4.2130100136734E-01
   226  2.2500000000000E+00 -2.2375334733348E-01  3.8512624925200E-01
   227  2.2600000000000E+00 -2.1266296948120E-01  3.4924495468355E-01
   228  2.2700000000000E+00 -2.0150759715002E-01  3.1373332258592E-01
   229  2.2800000000000E+00 -1.9031763906847E-01  2.7866596930550E-01
   230  2.2900000000000E+00 -1.7912304501230E-01  2.4411569984765E-01
   231  2.3000000000000E+00 -1.6795321991321E-01  2.1015329164929E-01
   232  2.3100000000000E+00 -1.5683694030015E-01  1.7684728558212E-01
   233  2.3200000000000E+00 -1.4580227334421E-01  1.4426378486252E-01
   234  2.3300000000000E+00 -1.3487649876628E-01  1.1246626251085E-01
   235  2.3400000000000E+00 -1.2408603385695E-01  8.1515377976400E-02
   236  2.3500000000000E+00 -1.1345636184584E-01  5.1468803509881E-02
   237  2.3600000000000E+00 -1.0301196384978E-01  2.2381060845205E-02
   238  2.3700000000000E+00 -9.2776254610359E-02 -5.6966313001945E-03
   239  2.3800000000000E+00 -8.2771522220826E-02 -3.2716498424930E-02
   240  2.3900000000000E+00 -7.3018872030244E-02 -5.8634339693778E-02
   241  2.4000000000000E+00 -6.3538174895527E-02 -8.3409645235998E-02
   242  2.4100000000000E+00 -5.4348019935827E-02 -1.0700570093188E-01
   243  2.4200000000000E+00 -4.5465671929561E-02 -1.2938968036543E-01
   244  2.4300000000000E+00 -3.6907033481790E-02 -1.5053272365442E-01
   245  2.4400000000000E+00 -2.8686612065407E-02 -1.7041000293312E-01
   246  2.4500000000000E+00 -2.0817492024888E-02 -1.8900077430145E-01
   247  2.4600000000000E+00 -1.3311311624339E-02 -2.0628841607297E-01
   248  2.4700000000000E+00 -6.1782451880910E-03 -2.2226045324190E-01
   249  2.4800000000000E+00  5.7300962801374E-04 -2.3690856811542E-01
   250  2.4900000000000E+00  6.9352394062973E-03 -2.5022859708341E-01
   251  2.5000000000000E+00  1.2902717380898E-02 -2.6222051357923E-01
   252  2.5100000000000E+00  1.8471200711920E-02 -2.7288839732028E-01
   253  2.5200000000000E+00  2.3637922643993E-02 -2.8224038993607E-01
   254  2.5300000000000E+00  2.8401579604251E-02 -2.9028863717233E-01
   255  2.5400000000000E+00  3.2762313309696E-02 -2.9704921789798E-01
   256  2.5500000000000E+00  3.6721687958298E-02 -3.0254206015309E-01
   257  2.5600000000000E+00  4.0282662610320E-02 -3.0679084455894E-01
   258  2.5700000000000E+00  4.3449558880104E-02 -3.0982289544627E-01
   259  2.5800000000000E+00  4.6228024059778E-02 -3.1166906006088E-01
   260  2.5900000000000E+00  4.8624989831052E-02 -3.1236357629498E-01
   261  2.6000000000000E+00  5.0648626730458E-02 -3.1194392941544E-01
   262  2.6100000000000E+00  5.2308294532222E-02 -3.1045069825759E-01
   263  2.6200000000000E+00  5.3614488752123E-02 -3.0792739145260E-01
   264  2.6300000000000E+00  5.4578783472648E-02 -3.0442027424855E-01
   265  2.6400000000000E+00  5.5213770697479E-02 -2.9997818650489E-01
   266  2.6500000000000E+00  5.5532996474173E-02 -2.9465235251790E-01
   267  2.6600000000000E+00  5.5550894015644E-02 -2.8849618331316E-01
   268  2.6700000000000E+00  5.5282714067446E-02 -2.8156507208324E-01
   269  2.6800000000000E+00  5.4744452784854E-02 -2.7391618348984E-01
   270  2.6900000000000E+00  5.3952777375655E-02 -2.6560823753006E-01
   271  2.7000000000000E+00  5.2924949786174E-02 -2.5670128871984E-01
   272  2.7100000000000E+00  5.1678748709735E-02 -2.4725650135080E-01
   273  2.7200000000000E+00  5.0232390194968E-02 -2.3733592157307E-01
   274  2.7300000000000E+00  4.8604447149243E-02 -2.2700224709851E-01
   275  2.7400000000000E+00  4.6813768023069E-02 -2.1631859529604E-01
   276  2.7500000000000E+00  4.4879394971482E-02 -2.0534827047529E-01
   277  2.7600000000000E+00  4.2820481786182E-02 -1.9415453114582E-01
   278  2.7700000000000E+00  4.0656211893739E-02 -1.8280035804584E-01
   279  2.7800000000000E+00  3.8405716714953E-02 -1.7134822372884E-01
   280  2.7900000000000E+00  3.6087994674518E-02 -1.5985986448167E-01
   281  2.8000000000000E+00  3.3721831157720E-02 -1.4839605536742E-01
   282  2.8100000000000E+00  3.1325720790335E-02 -1.3701639172336E-01
   283  2.8200000000000E+00  2.8917785277566E-02 -1.2577906124586E-01
   284  2.8300000000000E+00  2.6515700740529E-02 -1.1474063964166E-01
   285  2.8400000000000E+00  2.4136643368628E-02 -1.0395593062434E-01
   286  2.8500000000000E+00  2.1797175894778E-02 -9.3477667802745E-02
   287  2.8600000000000E+00  1.9513206527225E-02 -8.3356388991184E-02
   288  2.8700000000000E+00  1.7299571925900E-02 -7.3639423836116E-02
   289  2.8800000000000E+00  1.5170004688737E-02 -6.4370790799092E-02
   290  2.8900000000000E+00  1.3138017373040E-02 -5.5593258579257E-02
   291  2.9000000000000E+00  1.1216668557640E-02 -4.7347772036122E-02
   292  2.9100000000000E+00  9.4178806304650E-03 -3.9671822796412E-02
   293  2.9200000000000E+00  7.7525571144478E-03 -3.2599706195210E-02
   294  2.9300000000000E+00  6.2305462423891E-03 -2.6162417467880E-02
   295  2.9400000000000E+00  4.8605798195901E-03 -2.0387491787362E-02
   296  2.9500000000000E+00  3.6502463141223E-03 -1.5298926781935E-02
   297  2.9600000000000E+00  2.6059561127113E-03 -1.0917088531192E-02
   298  2.9700000000000E+00  1.7335729682703E-03 -7.2614106476699E-03
   299  2.9800000000000E+00  1.0340057321999E-03 -4.3318598196535E-03
   300  2.9900000000000E+00  5.1150546490026E-04 -2.1439064395442E-03
   301  3.0000000000000E+00  1.8150877462904E-04 -7.6139375562898E-04
   302  3.0100000000000E+00  2.6047653795547E-05 -1.0937801984188E-04
   303  3.0200000000000E+00 -1.4014916667262E-05  5.8870456674661E-05
   304  3.0300000000000E+00 -3.4230795221612E-06  1.4385508981734E-05
   305  3.04  0. -0.
   306  3.05  0. -0.
   307  3.06 -0.  0.
   308  3.07 -0.  0.
   309  3.08 -0.  0.
   310  3.09  0.  0.
   311  3.10  0.  0.
   312  3.11  0.  0.
   313  3.12  0.  0.
   314  3.13  0.  0.
   315  3.14  0.  0.
   316  3.15  0.  0.
   317  3.16  0.  0.
   318  3.17  0.  0.
   319  3.18  0.  0.
   320  3.19  0.  0.
   321  3.20  0.  0.
   322  3.21  0.  0.
   323  3.22  0.  0.
   324  3.23  0.  0.
   325  3.24  0.  0.
   326  3.25  0.  0.
   327  3.26  0.  0.
   328  3.27  0.  0.
   329  3.28  0.  0.
   330  3.29  0.  0.
   331  3.30  0.  0.
   332  3.31  0.  0.
   333  3.32  0.  0.
   334  3.33  0.  0.
   335  3.34  0.  0.
   336  3.35  0.  0.
   337  3.36  0.  0.
   338  3.37  0.  0.
   339  3.38  0.  0.
   340  3.39  0.  0.
   341  3.40  0.  0.
   342  3.41  0.  0.
   343  3.42  0.  0.
   344  3.43  0.  0.
   345  3.44  0.  0.
   346  3.45  0.  0.
   347  3.46  0.  0.
   348  3.47  0.  0.
   349  3.48  0.  0.
   350  3.49  0.  0.
   351  3.50  0.  0.
   352  3.51  0.  0.
   353  3.52  0.  0.
   354  3.53  0.  0.
   355  3.54  0.  0.
   356  3.55  0.  0.
   357  3.56  0.  0.
   358  3.57  0.  0.
   359  3.58  0.  0.
   360  3.59  0.  0.
   361  3.60  0.  0.
   362  3.61  0.  0.
   363  3.62  0.  0.
   364  3.63  0.  0.
   365  3.64  0.  0.
   366  3.65  0.  0.
   367  3.66  0.  0.
   368  3.67  0.  0.
   369  3.68  0.  0.
   370  3.69  0.  0.
   371  3.70  0.  0.
   372  3.71  0.  0.
   373  3.72  0.  0.
   374  3.73  0.  0.
   375  3.74  0.  0.
   376  3.75  0.  0.
   377  3.76  0.  0.
   378  3.77  0.  0.
   379  3.78  0.  0.
   380  3.79  0.  0.
   381  3.80  0.  0.
   382  3.81  0.  0.
   383  3.82  0.  0.
   384  3.83  0.  0.
   385  3.84  0.  0.
   386  3.85  0.  0.
   387  3.86  0.  0.
   388  3.87  0.  0.
   389  3.88  0.  0.
   390  3.89  0.  0.
   391  3.90  0.  0.
   392  3.91  0.  0.
   393  3.92  0.  0.
   394  3.93  0.  0.
   395  3.94  0.  0.
   396  3.95  0.  0.
   397  3.96  0.  0.
   398  3.97  0.  0.
   399  3.98  0.  0.
   400  3.99  0.  0.
   401  4.00  0.  0.
   402  4.01  0.  0.
   403  4.02  0.  0.
   404  4.03  0.  0.
   405  4.04  0.  0.
   406  4.05  0.  0.
   407  4.06  0.  0.
   408  4.07  0.  0.
   409  4.08  0.  0.
   410  4.09  0.  0.
   411  4.10  0.  0.
   412  4.11  0.  0.
   413  4.12  0.  0.
   414  4.13  0.  0.
   415  4.14  0.  0.
   416  4.15  0.  0.
   417  4.16  0.  0.
   418  4.17  0.  0.
   419  4.18  0.  0.
   420  4.19  0.  0.
   421  4.20  0.  0.
   422  4.21  0.  0.
   423  4.22  0.  0.
   424  4.23  0.  0.
   425  4.24  0.  0.
   426  4.25  0.  0.
   427  4.26  0.  0.
   428  4.27  0.  0.
   429  4.28  0.  0.
   430  4.29  0.  0.
   431  4.30  0.  0.
   432  4.31  0.  0.
   433  4.32  0.  0.
   434  4.33  0.  0.
   435  4.34  0.  0.
   436  4.35  0.  0.
   437  4.36  0.  0.
   438  4.37  0.  0.
   439  4.38  0.  0.
   440  4.39  0.  0.
   441  4.40  0.  0.
   442  4.41  0.  0.
   443  4.42  0.  0.
   444  4.43  0.  0.
   445  4.44  0.  0.
   446  4.45  0.  0.
   447  4.46  0.  0.
   448  4.47  0.  0.
   449  4.48  0.  0.
   450  4.49  0.  0.
   451  4.50  0.  0.
   452  4.51  0.  0.
   453  4.52  0.  0.
   454  4.53  0.  0.
   455  4.54  0.  0.
   456  4.55  0.  0.
   457  4.56  0.  0.
   458  4.57  0.  0.
   459  4.58  0.  0.
   460  4.59  0.  0.
   461  4.60  0.  0.
   462  4.61  0.  0.
   463  4.62  0.  0.
   464  4.63  0.  0.
   465  4.64  0.  0.
   466  4.65  0.  0.
   467  4.66  0.  0.
   468  4.67  0.  0.
   469  4.68  0.  0.
   470  4.69  0.  0.
   471  4.70  0.  0.
   472  4.71  0.  0.
   473  4.72  0.  0.
   474  4.73  0.  0.
   475  4.74  0.  0.
   476  4.75  0.  0.
   477  4.76  0.  0.
   478  4.77  0.  0.
   479  4.78  0.  0.
   480  4.79  0.  0.
   481  4.80  0.  0.
   482  4.81  0.  0.
   483  4.82  0.  0.
   484  4.83  0.  0.
   485  4.84  0.  0.
   486  4.85  0.  0.
   487  4.86  0.  0.
   488  4.87  0.  0.
   489  4.88  0.  0.
   490  4.89  0.  0.
   491  4.90  0.  0.
   492  4.91  0.  0.
   493  4.92  0.  0.
   494  4.93  0.  0.
   495  4.94  0.  0.
   496  4.95  0.  0.
   497  4.96  0.  0.
   498  4.97  0.  0.
   499  4.98  0.  0.
   500  4.99  0.  0.
   501  5.00  0.  0.
   502  5.01  0.  0.
   503  5.02  0.  0.
   504  5.03  0.  0.
   505  5.04  0.  0.
   506  5.05  0.  0.
   507  5.06  0.  0.
   508  5.07  0.  0.
   509  5.08  0.  0.
   510  5.09  0.  0.
   511  5.10  0.  0.
   512  5.11  0.  0.
   513  5.12  0.  0.
   514  5.13  0.  0.
   515  5.14  0.  0.
   516  5.15  0.  0.
   517  5.16  0.  0.
   518  5.17  0.  0.
   519  5.18  0.  0.
   520  5.19  0.  0.
   521  5.20  0.  0.
   522  5.21  0.  0.
   523  5.22  0.  0.
   524  5.23  0.  0.
   525  5.24  0.  0.
   526  5.25  0.  0.
   527  5.26  0.  0.
   528  5.27  0.  0.
   529  5.28  0.  0.
   530  5.29  0.  0.
   531  5.30  0.  0.
   532  5.31  0.  0.
   533  5.32  0.  0.
   534  5.33  0.  0.
   535  5.34  0.  0.
   536  5.35  0.  0.
   537  5.36  0.  0.
   538  5.37  0.  0.
   539  5.38  0.  0.
   540  5.39  0.  0.
   541  5.40  0.  0.
   542  5.41  0.  0.
   543  5.42  0.  0.
   544  5.43  0.  0.
   545  5.44  0.  0.
   546  5.45  0.  0.
   547  5.46  0.  0.
   548  5.47  0.  0.
   549  5.48  0.  0.
   550  5.49  0.  0.
   551  5.50  0.  0.
   552  5.51  0.  0.
   553  5.52  0.  0.
   554  5.53  0.  0.
   555  5.54  0.  0.
   556  5.55  0.  0.
   557  5.56  0.  0.
   558  5.57  0.  0.
   559  5.58  0.  0.
   560  5.59  0.  0.
   561  5.60  0.  0.
   562  5.61  0.  0.
   563  5.62  0.  0.
   564  5.63  0.  0.
   565  5.64  0.  0.
   566  5.65  0.  0.
   567  5.66  0.  0.
   568  5.67  0.  0.
   569  5.68  0.  0.
   570  5.69  0.  0.
   571  5.70  0.  0.
   572  5.71  0.  0.
   573  5.72  0.  0.
   574  5.73  0.  0.
   575  5.74  0.  0.
   576  5.75  0.  0.
   577  5.76  0.  0.
   578  5.77  0.  0.
   579  5.78  0.  0.
   580  5.79  0.  0.
   581  5.80  0.  0.
   582  5.81  0.  0.
   583  5.82  0.  0.
   584  5.83  0.  0.
   585  5.84  0.  0.
   586  5.85  0.  0.
   587  5.86  0.  0.
   588  5.87  0.  0.
   589  5.88  0.  0.
   590  5.89  0.  0.
   591  5.90  0.  0.
   592  5.91  0.  0.
   593  5.92  0.  0.
   594  5.93  0.  0.
   595  5.94  0.  0.
   596  5.95  0.  0.
   597  5.96  0.  0.
   598  5.97  0.  0.
   599  5.98  0.  0.
   600  5.99  0.  0.
   1                         4.5873113291363E+00  4.6362313047274E-01
     1  0.0000000000000E+00 -1.2059298004630E-11  2.4913179158537E-11
     2  1.0000000000000E-02  2.8552658504890E-04 -2.0512798049299E-04
     3  2.0000000000000E-02  1.1420199050507E-03 -8.2041905222725E-04
     4  3.0000000000000E-02  2.5692196371661E-03 -1.8455928090124E-03
     5  4.0000000000000E-02  4.5666885249005E-03 -3.2801759303273E-03
     6  5.0000000000000E-02  7.1338073223543E-03 -5.1234932613977E-03
     7  6.0000000000000E-02  1.0269767759849E-02 -7.3746554158286E-03
     8  7.0000000000000E-02  1.3973563574367E-02 -1.0032542990743E-02
     9  8.0000000000000E-02  1.8243979660288E-02 -1.3095787509296E-02
    10  9.0000000000000E-02  2.3079579407730E-02 -1.6562749229733E-02
    11  1.0000000000000E-01  2.8478690307264E-02 -2.0431491983733E-02
    12  1.1000000000000E-01  3.4439387910904E-02 -2.4699755229521E-02
    13  1.2000000000000E-01  4.0959478249946E-02 -2.9364923527003E-02
    14  1.3000000000000E-01  4.8036478820485E-02 -3.4423993662852E-02
    15  1.4000000000000E-01  5.5667598257091E-02 -3.9873539672933E-02
    16  1.5000000000000E-01  6.3849714824272E-02 -4.5709676027665E-02
    17  1.6000000000000E-01  7.2579353863878E-02 -5.1928019262675E-02
    18  1.7000000000000E-01  8.1852664344396E-02 -5.8523648352320E-02
    19  1.8000000000000E-01  9.1665394665306E-02 -6.5491064137393E-02
    20  1.9000000000000E-01  1.0201286787603E-01 -7.2824148130258E-02
    21  2.0000000000000E-01  1.1288995647468E-01 -8.0516121030958E-02
    22  2.1000000000000E-01  1.2429105695668E-01 -8.8559501296205E-02
    23  2.2000000000000E-01  1.3621006428728E-01 -9.6946064109771E-02
    24  2.3000000000000E-01  1.4864034647524E-01 -1.0566680110736E-01
    25  2.4000000000000E-01  1.6157471942725E-01 -1.1471188121176E-01
    26  2.5000000000000E-01  1.7500542226400E-01 -1.2407061293459E-01
    27  2.6000000000000E-01  1.8892409327929E-01 -1.3373140849983E-01
    28  2.7000000000000E-01  2.0332174672348E-01 -1.4368175014048E-01
    29  2.8000000000000E-01  2.1818875059070E-01 -1.5390815891477E-01