Sb    ONCVPSP-4.0.1  r_core=   2.41107   2.31219   2.31219   2.31219
     51.0000     15.0000      230118    zatom,zion,pspd
     8       2   3     4   600     0    pspcod,pspxc,lmax,lloc,mmax,r2well
  5.99000000  5.00000000  0.00000000    rchrg fchrg qchrg
     2     2     2     2     0    nproj
     1     1           extension_switch
   0                         4.5514702774703E+00  4.3898531216976E-01
     1  0.0000000000000E+00 -9.6416707950908E-11  2.6651094525709E-10
     2  1.0000000000000E-02  2.4189776125253E-02 -7.7185091598874E-03
     3  2.0000000000000E-02  4.8352220561759E-02 -1.5390918644934E-02
     4  3.0000000000000E-02  7.2460226378281E-02 -2.2971677166332E-02
     5  4.0000000000000E-02  9.6487133752325E-02 -3.0416323867191E-02
     6  5.0000000000000E-02  1.2040694753351E-01 -3.7682017756550E-02
     7  6.0000000000000E-02  1.4419454768675E-01 -4.4728048395808E-02
     8  7.0000000000000E-02  1.6782589035596E-01 -5.1516321904277E-02
     9  8.0000000000000E-02  1.9127819738556E-01 -5.8011816617016E-02
    10  9.0000000000000E-02  2.1453013225572E-01 -6.4183003056121E-02
    11  1.0000000000000E-01  2.3756196052700E-01 -7.0002223262527E-02
    12  1.1000000000000E-01  2.6035569304958E-01 -7.5446024975458E-02
    13  1.2000000000000E-01  2.8289521037009E-01 -8.0495446635970E-02
    14  1.3000000000000E-01  3.0516636696267E-01 -8.5136249724951E-02
    15  1.4000000000000E-01  3.2715707411939E-01 -8.9359095518519E-02
    16  1.5000000000000E-01  3.4885736055587E-01 -9.3159663949207E-02
    17  1.6000000000000E-01  3.7025941001852E-01 -9.6538712893481E-02
    18  1.7000000000000E-01  3.9135757541833E-01 -9.9502076858034E-02
    19  1.8000000000000E-01  4.1214836926014E-01 -1.0206060470255E-01
    20  1.9000000000000E-01  4.3263043038294E-01 -1.0423003670791E-01
    21  2.0000000000000E-01  4.5280446727415E-01 -1.0603082196943E-01
    22  2.1000000000000E-01  4.7267317846592E-01 -1.0748787775714E-01
    23  2.2000000000000E-01  4.9224115076209E-01 -1.0863029313296E-01
    24  2.3000000000000E-01  5.1151473627832E-01 -1.0949097974057E-01
    25  2.4000000000000E-01  5.3050190950204E-01 -1.1010627328130E-01
    26  2.5000000000000E-01  5.4921210579174E-01 -1.1051548975214E-01
    27  2.6000000000000E-01  5.6765604293395E-01 -1.1076044104416E-01
    28  2.7000000000000E-01  5.8584552755939E-01 -1.1088491497503E-01
    29  2.8000000000000E-01  6.0379324838520E-01 -1.1093412525335E-01
    30  2.9000000000000E-01  6.2151255839609E-01 -1.1095413724041E-01
    31  3.0000000000000E-01  6.3901724820214E-01 -1.1099127568209E-01
    32  3.1000000000000E-01  6.5632131291389E-01 -1.1109152082735E-01
    33  3.2000000000000E-01  6.7343871495460E-01 -1.1129989952647E-01
    34  3.3000000000000E-01  6.9038314528463E-01 -1.1165987801014E-01
    35  3.4000000000000E-01  7.0716778554334E-01 -1.1221276308828E-01
    36  3.5000000000000E-01  7.2380507361860E-01 -1.1299711847359E-01
    37  3.6000000000000E-01  7.4030647513377E-01 -1.1404820283076E-01
    38  3.7000000000000E-01  7.5668226329628E-01 -1.1539743597650E-01
    39  3.8000000000000E-01  7.7294130948130E-01 -1.1707189941222E-01
    40  3.9000000000000E-01  7.8909088682901E-01 -1.1909387705954E-01
    41  4.0000000000000E-01  8.0513648901579E-01 -1.2148044169430E-01
    42  4.1000000000000E-01  8.2108166621878E-01 -1.2424309213907E-01
    43  4.2000000000000E-01  8.3692788013153E-01 -1.2738744578201E-01
    44  4.3000000000000E-01  8.5267437970751E-01 -1.3091299044683E-01
    45  4.4000000000000E-01  8.6831809910883E-01 -1.3481289904827E-01
    46  4.5000000000000E-01  8.8385357912297E-01 -1.3907390983710E-01
    47  4.6000000000000E-01  8.9927291308177E-01 -1.4367627437417E-01
    48  4.7000000000000E-01  9.1456571807638E-01 -1.4859377468009E-01
    49  4.8000000000000E-01  9.2971913201302E-01 -1.5379381029428E-01
    50  4.9000000000000E-01  9.4471783679771E-01 -1.5923755525008E-01
    51  5.0000000000000E-01  9.5954410767825E-01 -1.6488018424006E-01
    52  5.1000000000000E-01  9.7417788850924E-01 -1.7067116651372E-01
    53  5.2000000000000E-01  9.8859689244497E-01 -1.7655462532734E-01
    54  5.3000000000000E-01  1.0027767273075E+00 -1.8246976005937E-01
    55  5.4000000000000E-01  1.0166910446252E+00 -1.8835132742185E-01
    56  5.5000000000000E-01  1.0303117110954E+00 -1.9413017754698E-01
    57  5.6000000000000E-01  1.0436090009903E+00 -1.9973384011352E-01
    58  5.7000000000000E-01  1.0565518078105E+00 -2.0508715510848E-01
    59  5.8000000000000E-01  1.0691078732848E+00 -2.1011294230005E-01
    60  5.9000000000000E-01  1.0812440316308E+00 -2.1473270303492E-01
    61  6.0000000000000E-01  1.0929264668260E+00 -2.1886734757168E-01
    62  6.1000000000000E-01  1.1041209804940E+00 -2.2243794082604E-01
    63  6.2000000000000E-01  1.1147932678910E+00 -2.2536645913810E-01
    64  6.3000000000000E-01  1.1249091993789E+00 -2.2757655047921E-01
    65  6.4000000000000E-01  1.1344351047008E+00 -2.2899429039898E-01
    66  6.5000000000000E-01  1.1433380573298E+00 -2.2954892597376E-01
    67  6.6000000000000E-01  1.1515861561424E+00 -2.2917360005694E-01
    68  6.7000000000000E-01  1.1591488016765E+00 -2.2780604824958E-01
    69  6.8000000000000E-01  1.1659969642695E+00 -2.2538926120605E-01
    70  6.9000000000000E-01  1.1721034414345E+00 -2.2187210516269E-01
    71  7.0000000000000E-01  1.1774431019210E+00 -2.1720989392573E-01
    72  7.1000000000000E-01  1.1819931140214E+00 -2.1136490597473E-01
    73  7.2000000000000E-01  1.1857331558241E+00 -2.0430684082638E-01
    74  7.3000000000000E-01  1.1886456052746E+00 -1.9601320935632E-01
    75  7.4000000000000E-01  1.1907157080943E+00 -1.8646965338797E-01
    76  7.5000000000000E-01  1.1919317218082E+00 -1.7567019052282E-01
    77  7.6000000000000E-01  1.1922850343567E+00 -1.6361738089877E-01
    78  7.7000000000000E-01  1.1917702560089E+00 -1.5032241331603E-01
    79  7.8000000000000E-01  1.1903852835441E+00 -1.3580510895614E-01
    80  7.9000000000000E-01  1.1881313359379E+00 -1.2009384173193E-01
    81  8.0000000000000E-01  1.1850129610587E+00 -1.0322537513515E-01
    82  8.1000000000000E-01  1.1810380131668E+00 -8.5244616288859E-02
    83  8.2000000000000E-01  1.1762176012870E+00 -6.6204288751672E-02
    84  8.3000000000000E-01  1.1705660088159E+00 -4.6164526455198E-02
    85  8.4000000000000E-01  1.1641005850043E+00 -2.5192391974032E-02
    86  8.5000000000000E-01  1.1568416092378E+00 -3.3613231227808E-03
    87  8.6000000000000E-01  1.1488121293073E+00  1.9249487363040E-02
    88  8.7000000000000E-01  1.1400377751236E+00  4.2555773581928E-02
    89  8.8000000000000E-01  1.1305465495797E+00  6.6468933500986E-02
    90  8.9000000000000E-01  1.1203685984955E+00  9.0896814493188E-02
    91  9.0000000000000E-01  1.1095359617983E+00  1.1574454003931E-01
    92  9.1000000000000E-01  1.0980823082858E+00  1.4091536976450E-01
    93  9.2000000000000E-01  1.0860426564942E+00  1.6631158455873E-01
    94  9.3000000000000E-01  1.0734530843434E+00  1.9183538818830E-01
    95  9.4000000000000E-01  1.0603504303569E+00  2.1738981654523E-01
    96  9.5000000000000E-01  1.0467719893524E+00  2.4287964550561E-01
    97  9.6000000000000E-01  1.0327552055692E+00  2.6821228828082E-01
    98  9.7000000000000E-01  1.0183373662409E+00  2.9329867314741E-01
    99  9.8000000000000E-01  1.0035552986351E+00  3.1805409253365E-01
   100  9.9000000000000E-01  9.8844507356300E-01  3.4239901462341E-01
   101  1.0000000000000E+00  9.7304171831861E-01  3.6625984891036E-01
   102  1.0100000000000E+00  9.5737894192775E-01  3.8956965749483E-01
   103  1.0200000000000E+00  9.4148887548590E-01  4.1226880436075E-01
   104  1.0300000000000E+00  9.2540183022937E-01  4.3430553539597E-01
   105  1.0400000000000E+00  9.0914607582617E-01  4.5563648252260E-01
   106  1.0500000000000E+00  8.9274764118784E-01  4.7622708597969E-01
   107  1.0600000000000E+00  8.7623013989552E-01  4.9605192954079E-01
   108  1.0700000000000E+00  8.5961462210280E-01  5.1509498425165E-01
   109  1.0800000000000E+00  8.4291945452829E-01  5.3334975712405E-01
   110  1.0900000000000E+00  8.2616022988267E-01  5.5081934212183E-01
   111  1.1000000000000E+00  8.0934970679295E-01  5.6751637170686E-01
   112  1.1100000000000E+00  7.9249778099124E-01  5.8346286817538E-01
   113  1.1200000000000E+00  7.7561148823082E-01  5.9868999499399E-01
   114  1.1300000000000E+00  7.5869503908118E-01  6.1323770933326E-01
   115  1.1400000000000E+00  7.4174988543855E-01  6.2715431798547E-01
   116  1.1500000000000E+00  7.2477481827276E-01  6.4049593983045E-01
   117  1.1600000000000E+00  7.0776609581787E-01  6.5332587897227E-01
   118  1.1700000000000E+00  6.9071760110626E-01  6.6571391359896E-01
   119  1.1800000000000E+00  6.7362102744620E-01  6.7773550650735E-01
   120  1.1900000000000E+00  6.5646609015480E-01  6.8947094408001E-01
   121  1.2000000000000E+00  6.3924076258472E-01  7.0100441128647E-01
   122  1.2100000000000E+00  6.2193153422532E-01  7.1242301100655E-01
   123  1.2200000000000E+00  6.0452368842296E-01  7.2381573662208E-01
   124  1.2300000000000E+00  5.8700159704844E-01  7.3527240739780E-01
   125  1.2400000000000E+00  5.6934902924965E-01  7.4688257665838E-01
   126  1.2500000000000E+00  5.5154947126234E-01  7.5873442316456E-01
   127  1.2600000000000E+00  5.3358645411495E-01  7.7091363639348E-01
   128  1.2700000000000E+00  5.1544388595667E-01  7.8350230662870E-01
   129  1.2800000000000E+00  4.9710638566128E-01  7.9657783086560E-01
   130  1.2900000000000E+00  4.7855961431447E-01  8.1021184553221E-01
   131  1.3000000000000E+00  4.5979060118034E-01  8.2446919691590E-01
   132  1.3100000000000E+00  4.4078806076288E-01  8.3940695997054E-01
   133  1.3200000000000E+00  4.2154269763151E-01  8.5507351585891E-01
   134  1.3300000000000E+00  4.0204749576571E-01  8.7150769816207E-01
   135  1.3400000000000E+00  3.8229798929047E-01  8.8873801716829E-01
   136  1.3500000000000E+00  3.6229251162382E-01  9.0678197103409E-01
   137  1.3600000000000E+00  3.4203242023540E-01  9.2564545190425E-01
   138  1.3700000000000E+00  3.2152229442192E-01  9.4532225428429E-01
   139  1.3800000000000E+00  3.0077010373808E-01  9.6579369209109E-01
   140  1.3900000000000E+00  2.7978734497981E-01  9.8702832986244E-01
   141  1.4000000000000E+00  2.5858914589603E-01  1.0089818326061E+00
   142  1.4100000000000E+00  2.3719433410524E-01  1.0315969377092E+00
   143  1.4200000000000E+00  2.1562547000879E-01  1.0548035512317E+00
   144  1.4300000000000E+00  1.9390884282442E-01  1.0785189697677E+00
   145  1.4400000000000E+00  1.7207442920488E-01  1.1026482279006E+00
   146  1.4500000000000E+00  1.5015581425618E-01  1.1270845701076E+00
   147  1.4600000000000E+00  1.2819007512396E-01  1.1517100447905E+00
   148  1.4700000000000E+00  1.0621762767315E-01  1.1763962169448E+00
   149  1.4800000000000E+00  8.4282037137593E-02  1.2010049948353E+00
   150  1.4900000000000E+00  6.2429793966959E-02  1.2253895649237E+00
   151  1.5000000000000E+00  4.0710056436075E-02  1.2493954282251E+00
   152  1.5100000000000E+00  1.9174361909961E-02  1.2728615302415E+00
   153  1.5200000000000E+00 -2.1236910298942E-03  1.2956214756631E+00
   154  1.5300000000000E+00 -2.3128787098125E-02  1.3175048181341E+00
   155  1.5400000000000E+00 -4.3784262684109E-02  1.3383384145711E+00
   156  1.5500000000000E+00 -6.4032495073855E-02  1.3579478327991E+00
   157  1.5600000000000E+00 -8.3815309270082E-02  1.3761588006441E+00
   158  1.5700000000000E+00 -1.0307439896988E-01  1.3927986840978E+00
   159  1.5800000000000E+00 -1.2175175809571E-01  1.4076979817542E+00
   160  1.5900000000000E+00 -1.3979011914350E-01  1.4206918224141E+00
   161  1.6000000000000E+00 -1.5713339451337E-01  1.4316214525716E+00
   162  1.6100000000000E+00 -1.7372711692533E-01  1.4403357004261E+00
   163  1.6200000000000E+00 -1.8951887499402E-01  1.4466924031226E+00
   164  1.6300000000000E+00 -2.0445874004558E-01  1.4505597840988E+00
   165  1.6400000000000E+00 -2.1849968030357E-01  1.4518177677145E+00
   166  1.6500000000000E+00 -2.3159795865197E-01  1.4503592187588E+00
   167  1.6600000000000E+00 -2.4371351029886E-01  1.4460910949631E+00
   168  1.6700000000000E+00 -2.5481029681537E-01  1.4389355012971E+00
   169  1.6800000000000E+00 -2.6485663320833E-01  1.4288306355760E+00
   170  1.6900000000000E+00 -2.7382548490085E-01  1.4157316157676E+00
   171  1.7000000000000E+00 -2.8169473174124E-01  1.3996111803357E+00
   172  1.7100000000000E+00 -2.8844739643423E-01  1.3804602539938E+00
   173  1.7200000000000E+00 -2.9407183508800E-01  1.3582883723608E+00
   174  1.7300000000000E+00 -2.9856188789269E-01  1.3331239601895E+00
   175  1.7400000000000E+00 -3.0191698828822E-01  1.3050144590841E+00
   176  1.7500000000000E+00 -3.0414222933867E-01  1.2740263019088E+00
   177  1.7600000000000E+00 -3.0524838640304E-01  1.2402447324133E+00
   178  1.7700000000000E+00 -3.0525189557557E-01  1.2037734699515E+00
   179  1.7800000000000E+00 -3.0417478775888E-01  1.1647342205250E+00
   180  1.7900000000000E+00 -3.0204457862628E-01  1.1232660367471E+00
   181  1.8000000000000E+00 -2.9889411512257E-01  1.0795245306654E+00
   182  1.8100000000000E+00 -2.9476137954157E-01  1.0336809447044E+00
   183  1.8200000000000E+00 -2.8968925259978E-01  9.8592108727269E-01
   184  1.8300000000000E+00 -2.8372523729577E-01  9.3644414081420E-01
   185  1.8400000000000E+00 -2.7692114570130E-01  8.8546135126124E-01
   186  1.8500000000000E+00 -2.6933275116442E-01  8.3319460893732E-01
   187  1.8600000000000E+00 -2.6101940872620E-01  7.7987493199646E-01
   188  1.8700000000000E+00 -2.5204364684115E-01  7.2574086440045E-01
   189  1.8800000000000E+00 -2.4247073375813E-01  6.7103680126945E-01
   190  1.8900000000000E+00 -2.3236822215436E-01  6.1601125515997E-01
   191  1.9000000000000E+00 -2.2180547581920E-01  5.6091507742775E-01
   192  1.9100000000000E+00 -2.1085318235481E-01  5.0599964931465E-01
   193  1.9200000000000E+00 -1.9958285599586E-01  4.5151505775394E-01
   194  1.9300000000000E+00 -1.8806633474851E-01  3.9770827111077E-01
   195  1.9400000000000E+00 -1.7637527610919E-01  3.4482133016524E-01
   196  1.9500000000000E+00 -1.6458065564643E-01  2.9308956960364E-01
   197  1.9600000000000E+00 -1.5275227271155E-01  2.4273988509876E-01
   198  1.9700000000000E+00 -1.4095826748840E-01  1.9398906074817E-01
   199  1.9800000000000E+00 -1.2926465349885E-01  1.4704217119192E-01
   200  1.9900000000000E+00 -1.1773486954981E-01  1.0209107215797E-01
   201  2.0000000000000E+00 -1.0642935493615E-01  5.9312992471191E-02
   202  2.0100000000000E+00 -9.5405151516739E-02  1.8869239763938E-02
   203  2.0200000000000E+00 -8.4715536042398E-02 -1.9095968811866E-02
   204  2.0300000000000E+00 -7.4409685843314E-02 -5.4456540621299E-02
   205  2.0400000000000E+00 -6.4532380692885E-02 -8.7105397189509E-02
   206  2.0500000000000E+00 -5.5123743341908E-02 -1.1695521152809E-01
   207  2.0600000000000E+00 -4.6219020862768E-02 -1.4393898654356E-01
   208  2.0700000000000E+00 -3.7848408597943E-02 -1.6801046920625E-01
   209  2.0800000000000E+00 -3.0036918106846E-02 -1.8914439663023E-01
   210  2.0900000000000E+00 -2.2804290113641E-02 -2.0733657164344E-01
   211  2.1000000000000E+00 -1.6164953060880E-02 -2.2260376687241E-01
   212  2.1100000000000E+00 -1.0128027450865E-02 -2.3498345789323E-01
   213  2.1200000000000E+00 -4.6973757579751E-03 -2.4453338743319E-01
   214  2.1300000000000E+00  1.2830271752276E-04 -2.5133096408461E-01
   215  2.1400000000000E+00  4.3553331084480E-03 -2.5547250050433E-01
   216  2.1500000000000E+00  7.9948837779501E-03 -2.5707229738730E-01
   217  2.1600000000000E+00  1.1062744490651E-02 -2.5626158094986E-01
   218  2.1700000000000E+00  1.3579066120256E-02 -2.5318730280631E-01
   219  2.1800000000000E+00  1.5568064447247E-02 -2.4801081248931E-01
   220  2.1900000000000E+00  1.7057690902598E-02 -2.4090641391338E-01
   221  2.2000000000000E+00  1.8079273415394E-02 -2.3205981812312E-01
   222  2.2100000000000E+00  1.8667130788664E-02 -2.2166650558013E-01
   223  2.2200000000000E+00  1.8858164259534E-02 -2.0993001203172E-01
   224  2.2300000000000E+00  1.8691430129307E-02 -1.9706015277243E-01
   225  2.2400000000000E+00  1.8207697491736E-02 -1.8327120057802E-01
   226  2.2500000000000E+00  1.7448999904836E-02 -1.6878004716059E-01
   227  2.2600000000000E+00  1.6458145306243E-02 -1.5380424353374E-01
   228  2.2700000000000E+00  1.5278331835361E-02 -1.3856036807964E-01
   229  2.2800000000000E+00  1.3952604332569E-02 -1.2326192492079E-01
   230  2.2900000000000E+00  1.2523315213355E-02 -1.0811727176150E-01
   231  2.3000000000000E+00  1.1029211792275E-02 -9.3320384496544E-02
   232  2.3100000000000E+00  9.5072530836422E-03 -7.9055942487376E-02
   233  2.3200000000000E+00  7.9971662830452E-03 -6.5512688766082E-02
   234  2.3300000000000E+00  6.5363621810877E-03 -5.2867547811954E-02
   235  2.3400000000000E+00  5.1591868140712E-03 -4.1282852751299E-02
   236  2.3500000000000E+00  3.8968101302320E-03 -3.0905606305389E-02
   237  2.3600000000000E+00  2.7768607556970E-03 -2.1866148698161E-02
   238  2.3700000000000E+00  1.8233340314476E-03 -1.4278548716252E-02
   239  2.3800000000000E+00  1.0557137125150E-03 -8.2346545182047E-03
   240  2.3900000000000E+00  4.8598152286593E-04 -3.7816128446135E-03
   241  2.4000000000000E+00  1.4101922040355E-04 -1.0965349114938E-03
   242  2.4100000000000E+00  5.4088069356871E-06 -4.2623619664248E-05
   243  2.4200000000000E+00 -8.9709541895661E-06  6.9412809027669E-05
   244  2.4300000000000E+00  3.1053251376590E-06 -2.4041670468751E-05
   245  2.44  0. -0.
   246  2.45 -0.  0.
   247  2.46  0. -0.
   248  2.47  0.  0.
   249  2.48  0.  0.
   250  2.49  0.  0.
   251  2.50  0.  0.
   252  2.51  0.  0.
   253  2.52  0.  0.
   254  2.53  0.  0.
   255  2.54  0.  0.
   256  2.55  0.  0.
   257  2.56  0.  0.
   258  2.57  0.  0.
   259  2.58  0.  0.
   260  2.59  0.  0.
   261  2.60  0.  0.
   262  2.61  0.  0.
   263  2.62  0.  0.
   264  2.63  0.  0.
   265  2.64  0.  0.
   266  2.65  0.  0.
   267  2.66  0.  0.
   268  2.67  0.  0.
   269  2.68  0.  0.
   270  2.69  0.  0.
   271  2.70  0.  0.
   272  2.71  0.  0.
   273  2.72  0.  0.
   274  2.73  0.  0.
   275  2.74  0.  0.
   276  2.75  0.  0.
   277  2.76  0.  0.
   278  2.77  0.  0.
   279  2.78  0.  0.
   280  2.79  0.  0.
   281  2.80  0.  0.
   282  2.81  0.  0.
   283  2.82  0.  0.
   284  2.83  0.  0.
   285  2.84  0.  0.
   286  2.85  0.  0.
   287  2.86  0.  0.
   288  2.87  0.  0.
   289  2.88  0.  0.
   290  2.89  0.  0.
   291  2.90  0.  0.
   292  2.91  0.  0.
   293  2.92  0.  0.
   294  2.93  0.  0.
   295  2.94  0.  0.
   296  2.95  0.  0.
   297  2.96  0.  0.
   298  2.97  0.  0.
   299  2.98  0.  0.
   300  2.99  0.  0.
   301  3.00  0.  0.
   302  3.01  0.  0.
   303  3.02  0.  0.
   304  3.03  0.  0.
   305  3.04  0.  0.
   306  3.05  0.  0.
   307  3.06  0.  0.
   308  3.07  0.  0.
   309  3.08  0.  0.
   310  3.09  0.  0.
   311  3.10  0.  0.
   312  3.11  0.  0.
   313  3.12  0.  0.
   314  3.13  0.  0.
   315  3.14  0.  0.
   316  3.15  0.  0.
   317  3.16  0.  0.
   318  3.17  0.  0.
   319  3.18  0.  0.
   320  3.19  0.  0.
   321  3.20  0.  0.
   322  3.21  0.  0.
   323  3.22  0.  0.
   324  3.23  0.  0.
   325  3.24  0.  0.
   326  3.25  0.  0.
   327  3.26  0.  0.
   328  3.27  0.  0.
   329  3.28  0.  0.
   330  3.29  0.  0.
   331  3.30  0.  0.
   332  3.31  0.  0.
   333  3.32  0.  0.
   334  3.33  0.  0.
   335  3.34  0.  0.
   336  3.35  0.  0.
   337  3.36  0.  0.
   338  3.37  0.  0.
   339  3.38  0.  0.
   340  3.39  0.  0.
   341  3.40  0.  0.
   342  3.41  0.  0.
   343  3.42  0.  0.
   344  3.43  0.  0.
   345  3.44  0.  0.
   346  3.45  0.  0.
   347  3.46  0.  0.
   348  3.47  0.  0.
   349  3.48  0.  0.
   350  3.49  0.  0.
   351  3.50  0.  0.
   352  3.51  0.  0.
   353  3.52  0.  0.
   354  3.53  0.  0.
   355  3.54  0.  0.
   356  3.55  0.  0.
   357  3.56  0.  0.
   358  3.57  0.  0.
   359  3.58  0.  0.
   360  3.59  0.  0.
   361  3.60  0.  0.
   362  3.61  0.  0.
   363  3.62  0.  0.
   364  3.63  0.  0.
   365  3.64  0.  0.
   366  3.65  0.  0.
   367  3.66  0.  0.
   368  3.67  0.  0.
   369  3.68  0.  0.
   370  3.69  0.  0.
   371  3.70  0.  0.
   372  3.71  0.  0.
   373  3.72  0.  0.
   374  3.73  0.  0.
   375  3.74  0.  0.
   376  3.75  0.  0.
   377  3.76  0.  0.
   378  3.77  0.  0.
   379  3.78  0.  0.
   380  3.79  0.  0.
   381  3.80  0.  0.
   382  3.81  0.  0.
   383  3.82  0.  0.
   384  3.83  0.  0.
   385  3.84  0.  0.
   386  3.85  0.  0.
   387  3.86  0.  0.
   388  3.87  0.  0.
   389  3.88  0.  0.
   390  3.89  0.  0.
   391  3.90  0.  0.
   392  3.91  0.  0.
   393  3.92  0.  0.
   394  3.93  0.  0.
   395  3.94  0.  0.
   396  3.95  0.  0.
   397  3.96  0.  0.
   398  3.97  0.  0.
   399  3.98  0.  0.
   400  3.99  0.  0.
   401  4.00  0.  0.
   402  4.01  0.  0.
   403  4.02  0.  0.
   404  4.03  0.  0.
   405  4.04  0.  0.
   406  4.05  0.  0.
   407  4.06  0.  0.
   408  4.07  0.  0.
   409  4.08  0.  0.
   410  4.09  0.  0.
   411  4.10  0.  0.
   412  4.11  0.  0.
   413  4.12  0.  0.
   414  4.13  0.  0.
   415  4.14  0.  0.
   416  4.15  0.  0.
   417  4.16  0.  0.
   418  4.17  0.  0.
   419  4.18  0.  0.
   420  4.19  0.  0.
   421  4.20  0.  0.
   422  4.21  0.  0.
   423  4.22  0.  0.
   424  4.23  0.  0.
   425  4.24  0.  0.
   426  4.25  0.  0.
   427  4.26  0.  0.
   428  4.27  0.  0.
   429  4.28  0.  0.
   430  4.29  0.  0.
   431  4.30  0.  0.
   432  4.31  0.  0.
   433  4.32  0.  0.
   434  4.33  0.  0.
   435  4.34  0.  0.
   436  4.35  0.  0.
   437  4.36  0.  0.
   438  4.37  0.  0.
   439  4.38  0.  0.
   440  4.39  0.  0.
   441  4.40  0.  0.
   442  4.41  0.  0.
   443  4.42  0.  0.
   444  4.43  0.  0.
   445  4.44  0.  0.
   446  4.45  0.  0.
   447  4.46  0.  0.
   448  4.47  0.  0.
   449  4.48  0.  0.
   450  4.49  0.  0.
   451  4.50  0.  0.
   452  4.51  0.  0.
   453  4.52  0.  0.
   454  4.53  0.  0.
   455  4.54  0.  0.
   456  4.55  0.  0.
   457  4.56  0.  0.
   458  4.57  0.  0.
   459  4.58  0.  0.
   460  4.59  0.  0.
   461  4.60  0.  0.
   462  4.61  0.  0.
   463  4.62  0.  0.
   464  4.63  0.  0.
   465  4.64  0.  0.
   466  4.65  0.  0.
   467  4.66  0.  0.
   468  4.67  0.  0.
   469  4.68  0.  0.
   470  4.69  0.  0.
   471  4.70  0.  0.
   472  4.71  0.  0.
   473  4.72  0.  0.
   474  4.73  0.  0.
   475  4.74  0.  0.
   476  4.75  0.  0.
   477  4.76  0.  0.
   478  4.77  0.  0.
   479  4.78  0.  0.
   480  4.79  0.  0.
   481  4.80  0.  0.
   482  4.81  0.  0.
   483  4.82  0.  0.
   484  4.83  0.  0.
   485  4.84  0.  0.
   486  4.85  0.  0.
   487  4.86  0.  0.
   488  4.87  0.  0.
   489  4.88  0.  0.
   490  4.89  0.  0.
   491  4.90  0.  0.
   492  4.91  0.  0.
   493  4.92  0.  0.
   494  4.93  0.  0.
   495  4.94  0.  0.
   496  4.95  0.  0.
   497  4.96  0.  0.
   498  4.97  0.  0.
   499  4.98  0.  0.
   500  4.99  0.  0.
   501  5.00  0.  0.
   502  5.01  0.  0.
   503  5.02  0.  0.
   504  5.03  0.  0.
   505  5.04  0.  0.
   506  5.05  0.  0.
   507  5.06  0.  0.
   508  5.07  0.  0.
   509  5.08  0.  0.
   510  5.09  0.  0.
   511  5.10  0.  0.
   512  5.11  0.  0.
   513  5.12  0.  0.
   514  5.13  0.  0.
   515  5.14  0.  0.
   516  5.15  0.  0.
   517  5.16  0.  0.
   518  5.17  0.  0.
   519  5.18  0.  0.
   520  5.19  0.  0.
   521  5.20  0.  0.
   522  5.21  0.  0.
   523  5.22  0.  0.
   524  5.23  0.  0.
   525  5.24  0.  0.
   526  5.25  0.  0.
   527  5.26  0.  0.
   528  5.27  0.  0.
   529  5.28  0.  0.
   530  5.29  0.  0.
   531  5.30  0.  0.
   532  5.31  0.  0.
   533  5.32  0.  0.
   534  5.33  0.  0.
   535  5.34  0.  0.
   536  5.35  0.  0.
   537  5.36  0.  0.
   538  5.37  0.  0.
   539  5.38  0.  0.
   540  5.39  0.  0.
   541  5.40  0.  0.
   542  5.41  0.  0.
   543  5.42  0.  0.
   544  5.43  0.  0.
   545  5.44  0.  0.
   546  5.45  0.  0.
   547  5.46  0.  0.
   548  5.47  0.  0.
   549  5.48  0.  0.
   550  5.49  0.  0.
   551  5.50  0.  0.
   552  5.51  0.  0.
   553  5.52  0.  0.
   554  5.53  0.  0.
   555  5.54  0.  0.
   556  5.55  0.  0.
   557  5.56  0.  0.
   558  5.57  0.  0.
   559  5.58  0.  0.
   560  5.59  0.  0.
   561  5.60  0.  0.
   562  5.61  0.  0.
   563  5.62  0.  0.
   564  5.63  0.  0.
   565  5.64  0.  0.
   566  5.65  0.  0.
   567  5.66  0.  0.
   568  5.67  0.  0.
   569  5.68  0.  0.
   570  5.69  0.  0.
   571  5.70  0.  0.
   572  5.71  0.  0.
   573  5.72  0.  0.
   574  5.73  0.  0.
   575  5.74  0.  0.
   576  5.75  0.  0.
   577  5.76  0.  0.
   578  5.77  0.  0.
   579  5.78  0.  0.
   580  5.79  0.  0.
   581  5.80  0.  0.
   582  5.81  0.  0.
   583  5.82  0.  0.
   584  5.83  0.  0.
   585  5.84  0.  0.
   586  5.85  0.  0.
   587  5.86  0.  0.
   588  5.87  0.  0.
   589  5.88  0.  0.
   590  5.89  0.  0.
   591  5.90  0.  0.
   592  5.91  0.  0.
   593  5.92  0.  0.
   594  5.93  0.  0.
   595  5.94  0.  0.
   596  5.95  0.  0.
   597  5.96  0.  0.
   598  5.97  0.  0.
   599  5.98  0.  0.
   600  5.99  0.  0.
   1                         3.2416442072231E+00  2.9004756606266E-01
     1  0.0000000000000E+00  4.2284457185682E-11 -1.3094077168027E-10
     2  1.0000000000000E-02  3.2662178636684E-04 -5.9095522249743E-05
     3  2.0000000000000E-02  1.3060368762140E-03 -2.3597025283102E-04
     4  3.0000000000000E-02  2.9368966968647E-03 -5.2939467519875E-04
     5  4.0000000000000E-02  5.2169610544843E-03 -9.3733949713439E-04
     6  5.0000000000000E-02  8.1431091948240E-03 -1.4570052552432E-03
     7  6.0000000000000E-02  1.1711355128687E-02 -2.0848632667681E-03
     8  7.0000000000000E-02  1.5916867064521E-02 -2.8167074404412E-03
     9  8.0000000000000E-02  2.0753990748249E-02 -3.6477163271533E-03
    10  9.0000000000000E-02  2.6216276470249E-02 -4.5725246668265E-03
    11  1.0000000000000E-01  3.2296509461611E-02 -5.5853035711238E-03
    12  1.1000000000000E-01  3.8986743366872E-02 -6.6798483737176E-03
    13  1.2000000000000E-01  4.6278336448724E-02 -7.8496730821194E-03
    14  1.3000000000000E-01  5.4161990151960E-02 -9.0881102782317E-03
    15  1.4000000000000E-01  6.2627789629621E-02 -1.0388415240171E-02
    16  1.5000000000000E-01  7.1665245813980E-02 -1.1743872995923E-02
    17  1.6000000000000E-01  8.1263338599101E-02 -1.3147906971055E-02
    18  1.7000000000000E-01  9.1410560690179E-02 -1.4594187858323E-02
    19  1.8000000000000E-01  1.0209496166808E-01 -1.6076741317255E-02
    20  1.9000000000000E-01  1.1330419181535E-01 -1.7590053106641E-02
    21  2.0000000000000E-01  1.2502554525247E-01 -1.9129170262732E-02
    22  2.1000000000000E-01  1.3724600194081E-01 -2.0689796960630E-02
    23  2.2000000000000E-01  1.4995226812037E-01 -2.2268383735834E-02
    24  2.3000000000000E-01  1.6313081476743E-01 -2.3862208796732E-02
    25  2.4000000000000E-01  1.7676791367824E-01 -2.5469450226724E-02
    26  2.5000000000000E-01  1.9084967081025E-01 -2.7089247955839E-02
    27  2.6000000000000E-01  2.0536205654186E-01 -2.8721754475708E-02
    28  2.7000000000000E-01  2.2029093254505E-01 -3.0368173377420E-02
    29  2.8000000000000E-01  2.3562207500159E-01 -3.2030784908410E-02
    30  2.9000000000000E-01  2.5134119393389E-01 -3.3712957870984E-02
    31  3.0000000000000E-01  2.6743394846351E-01 -3.5419147319901E-02
    32  3.1000000000000E-01  2.8388595785584E-01 -3.7154877658954E-02
    33  3.2000000000000E-01  3.0068280825579E-01 -3.8926710884594E-02
    34  3.3000000000000E-01  3.1781005506807E-01 -4.0742199877616E-02
    35  3.4000000000000E-01  3.3525322098450E-01 -4.2609826799816E-02
    36  3.5000000000000E-01  3.5299778971083E-01 -4.4538926810099E-02
    37  3.6000000000000E-01  3.7102919549544E-01 -4.6539597472048E-02
    38  3.7000000000000E-01  3.8933280861122E-01 -4.8622594381141E-02
    39  3.8000000000000E-01  4.0789391699086E-01 -5.0799213692742E-02
    40  3.9000000000000E-01  4.2669770426222E-01 -5.3081162380590E-02
    41  4.0000000000000E-01  4.4572922447574E-01 -5.5480417197894E-02
    42  4.1000000000000E-01  4.6497337385844E-01 -5.8009073448090E-02
    43  4.2000000000000E-01  4.8441485996868E-01 -6.0679184798388E-02
    44  4.3000000000000E-01  5.0403816866264E-01 -6.3502595485167E-02
    45  4.4000000000000E-01  5.2382752931617E-01 -6.6490766364625E-02
    46  4.5000000000000E-01  5.4376687877482E-01 -6.9654596354171E-02
    47  4.6000000000000E-01  5.6383982452929E-01 -7.3004240888322E-02
    48  4.7000000000000E-01  5.8402960763357E-01 -7.6548929076913E-02
    49  4.8000000000000E-01  6.0431906589841E-01 -8.0296781302075E-02
    50  4.9000000000000E-01  6.2469059790263E-01 -8.4254629023507E-02
    51  5.0000000000000E-01  6.4512612836990E-01 -8.8427838578013E-02
    52  5.1000000000000E-01  6.6560707545820E-01 -9.2820140759396E-02
    53  5.2000000000000E-01  6.8611432050357E-01 -9.7433467947890E-02
    54  5.3000000000000E-01  7.0662818074838E-01 -1.0226780052459E-01
    55  5.4000000000000E-01  7.2712838556845E-01 -1.0732102425608E-01
    56  5.5000000000000E-01  7.4759405669117E-01 -1.1258880026739E-01
    57  5.6000000000000E-01  7.6800369287055E-01 -1.1806444913904E-01
    58  5.7000000000000E-01  7.8833515945336E-01 -1.2373885056527E-01
    59  5.8000000000000E-01  8.0856568323407E-01 -1.2960035989827E-01
    60  5.9000000000000E-01  8.2867185295615E-01 -1.3563474277636E-01
    61  6.0000000000000E-01  8.4862962577218E-01 -1.4182512889507E-01
    62  6.1000000000000E-01  8.6841433992730E-01 -1.4815198582924E-01
    63  6.2000000000000E-01  8.8800073387865E-01 -1.5459311365314E-01
    64  6.3000000000000E-01  9.0736297200921E-01 -1.6112366093566E-01
    65  6.4000000000000E-01  9.2647467703768E-01 -1.6771616251030E-01
    66  6.5000000000000E-01  9.4530896916740E-01 -1.7434059923607E-01
    67  6.6000000000000E-01  9.6383851195718E-01 -1.8096447977802E-01
    68  6.7000000000000E-01  9.8203556483645E-01 -1.8755294424566E-01
    69  6.8000000000000E-01  9.9987204212580E-01 -1.9406888933639E-01
    70  6.9000000000000E-01  1.0173195783633E+00 -2.0047311444057E-01