Te    ONCVPSP-4.0.1  r_core=   2.30879   2.26773   2.30879
     52.0000     16.0000      230118    zatom,zion,pspd
     8       2   2     4   600     0    pspcod,pspxc,lmax,lloc,mmax,r2well
  5.99000000  5.00000000  0.00000000    rchrg fchrg qchrg
     2     2     2     0     0    nproj
     1     1           extension_switch
   0                         7.9587204599598E+00  1.3058037992504E+00
     1  0.0000000000000E+00 -1.3324591430219E-11  3.0444063936486E-11
     2  1.0000000000000E-02  2.9318493005140E-02 -1.9569837585070E-02
     3  2.0000000000000E-02  5.8594973834360E-02 -3.9061209414002E-02
     4  3.0000000000000E-02  8.7787610982046E-02 -5.8396032729242E-02
     5  4.0000000000000E-02  1.1685493340937E-01 -7.7496988879466E-02
     6  5.0000000000000E-02  1.4575600859646E-01 -9.6287900652998E-02
     7  6.0000000000000E-02  1.7445061798646E-01 -1.1469410396898E-01
     8  7.0000000000000E-02  2.0289942896772E-01 -1.3264281208121E-01
     9  8.0000000000000E-02  2.3106416255360E-01 -1.5006347048002E-01
    10  9.0000000000000E-02  2.5890775593615E-01 -1.6688810071545E-01
    11  1.0000000000000E-01  2.8639451910973E-01 -1.8305163141068E-01
    12  1.1000000000000E-01  3.1349028478392E-01 -1.9849221478711E-01
    13  1.2000000000000E-01  3.4016255083138E-01 -2.1315152708290E-01
    14  1.3000000000000E-01  3.6638061454603E-01 -2.2697505131374E-01
    15  1.4000000000000E-01  3.9211569801960E-01 -2.3991234089905E-01
    16  1.5000000000000E-01  4.1734106398056E-01 -2.5191726275768E-01
    17  1.6000000000000E-01  4.4203212147809E-01 -2.6294821856505E-01
    18  1.7000000000000E-01  4.6616652083584E-01 -2.7296834295790E-01
    19  1.8000000000000E-01  4.8972423734487E-01 -2.8194567757307E-01
    20  1.9000000000000E-01  5.1268764321255E-01 -2.8985331991342E-01
    21  2.0000000000000E-01  5.3504156733443E-01 -2.9666954614571E-01
    22  2.1000000000000E-01  5.5677334250896E-01 -3.0237790705313E-01
    23  2.2000000000000E-01  5.7787283976984E-01 -3.0696729648730E-01
    24  2.3000000000000E-01  5.9833248956835E-01 -3.1043199179193E-01
    25  2.4000000000000E-01  6.1814728959745E-01 -3.1277166580147E-01
    26  2.5000000000000E-01  6.3731479911097E-01 -3.1399137015342E-01
    27  2.6000000000000E-01  6.5583511965430E-01 -3.1410148979133E-01
    28  2.7000000000000E-01  6.7371086218754E-01 -3.1311766867668E-01
    29  2.8000000000000E-01  6.9094710064836E-01 -3.1106070687146E-01
    30  2.9000000000000E-01  7.0755131206831E-01 -3.0795642929839E-01
    31  3.0000000000000E-01  7.2353330342465E-01 -3.0383552663192E-01
    32  3.1000000000000E-01  7.3890512547726E-01 -2.9873336891979E-01
    33  3.2000000000000E-01  7.5368097390945E-01 -2.9268979268141E-01
    34  3.3000000000000E-01  7.6787707815894E-01 -2.8574886237473E-01
    35  3.4000000000000E-01  7.8151157839378E-01 -2.7795860726705E-01
    36  3.5000000000000E-01  7.9460439115463E-01 -2.6937073488664E-01
    37  3.6000000000000E-01  8.0717706425096E-01 -2.6004032237027E-01
    38  3.7000000000000E-01  8.1925262156301E-01 -2.5002548715613E-01
    39  3.8000000000000E-01  8.3085539846414E-01 -2.3938703860100E-01
    40  3.9000000000000E-01  8.4201086863822E-01 -2.2818811222482E-01
    41  4.0000000000000E-01  8.5274546312490E-01 -2.1649378840351E-01
    42  4.1000000000000E-01  8.6308638248002E-01 -2.0437069744150E-01
    43  4.2000000000000E-01  8.7306140299002E-01 -1.9188661305843E-01
    44  4.3000000000000E-01  8.8269867792694E-01 -1.7911003641845E-01
    45  4.4000000000000E-01  8.9202653487414E-01 -1.6610977291574E-01
    46  4.5000000000000E-01  9.0107327019223E-01 -1.5295450400421E-01
    47  4.6000000000000E-01  9.0986694172890E-01 -1.3971235642367E-01
    48  4.7000000000000E-01  9.1843516090581E-01 -1.2645047122708E-01
    49  4.8000000000000E-01  9.2680488533964E-01 -1.1323457505427E-01
    50  4.9000000000000E-01  9.3500221317239E-01 -1.0012855612518E-01
    51  5.0000000000000E-01  9.4305218029830E-01 -8.7194047440979E-02
    52  5.1000000000000E-01  9.5097856168101E-01 -7.4490019682253E-02
    53  5.2000000000000E-01  9.5880367795369E-01 -6.2072386281641E-02
    54  5.3000000000000E-01  9.6654820848831E-01 -4.9993623120933E-02
    55  5.4000000000000E-01  9.7423101210607E-01 -3.8302405262026E-02
    56  5.5000000000000E-01  9.8186895658071E-01 -2.7043263065320E-02
    57  5.6000000000000E-01  9.8947675805859E-01 -1.6256259978917E-02
    58  5.7000000000000E-01  9.9706683148516E-01 -5.9766941972102E-03
    59  5.8000000000000E-01  1.0046491530858E+00  3.7651737118427E-03
    60  5.9000000000000E-01  1.0122311359010E+00  1.2944365224891E-02
    61  6.0000000000000E-01  1.0198175193203E+00  2.1541398468395E-02
    62  6.1000000000000E-01  1.0274102734981E+00  2.9542471293273E-02
    63  6.2000000000000E-01  1.0350085194664E+00  3.6939611255420E-02
    64  6.3000000000000E-01  1.0426084656843E+00  4.3730791104695E-02
    65  6.4000000000000E-01  1.0502033616857E+00  4.9920008562993E-02
    66  6.5000000000000E-01  1.0577834693977E+00  5.5517329360977E-02
    67  6.6000000000000E-01  1.0653360526156E+00  6.0538892701761E-02
    68  6.7000000000000E-01  1.0728453850205E+00  6.5006878527939E-02
    69  6.8000000000000E-01  1.0802927770271E+00  6.8949436184014E-02
    70  6.9000000000000E-01  1.0876566216465E+00  7.2400574289221E-02
    71  7.0000000000000E-01  1.0949124594403E+00  7.5400011863792E-02
    72  7.1000000000000E-01  1.1020330625324E+00  7.7992990984586E-02
    73  7.2000000000000E-01  1.1089885375341E+00  8.0230051481332E-02
    74  7.3000000000000E-01  1.1157464471240E+00  8.2166768422243E-02
    75  7.4000000000000E-01  1.1222719499115E+00  8.3863453374682E-02
    76  7.5000000000000E-01  1.1285279580955E+00  8.5384820662872E-02
    77  7.6000000000000E-01  1.1344753123215E+00  8.6799620077416E-02
    78  7.7000000000000E-01  1.1400729730227E+00  8.8180237720264E-02
    79  7.8000000000000E-01  1.1452782274254E+00  8.9602266891424E-02
    80  7.9000000000000E-01  1.1500469112885E+00  9.1144051139051E-02
    81  8.0000000000000E-01  1.1543336443453E+00  9.2886201800676E-02
    82  8.1000000000000E-01  1.1580920783152E+00  9.4911092559381E-02
    83  8.2000000000000E-01  1.1612751562598E+00  9.7302333722382E-02
    84  8.3000000000000E-01  1.1638353819678E+00  1.0014422909995E-01
    85  8.4000000000000E-01  1.1657250979712E+00  1.0352121851854E-01
    86  8.5000000000000E-01  1.1668967707206E+00  1.0751730914152E-01
    87  8.6000000000000E-01  1.1673032813793E+00  1.1221549889356E-01
    88  8.7000000000000E-01  1.1668982206344E+00  1.1769719538874E-01
    89  8.8000000000000E-01  1.1656361858757E+00  1.2404163384745E-01
    90  8.9000000000000E-01  1.1634730790485E+00  1.3132529755134E-01
    91  9.0000000000000E-01  1.1603664034554E+00  1.3962134442915E-01
    92  9.1000000000000E-01  1.1562755577599E+00  1.4899904338786E-01
    93  9.2000000000000E-01  1.1511621254328E+00  1.5952322400266E-01
    94  9.3000000000000E-01  1.1449901578816E+00  1.7125374315614E-01
    95  9.4000000000000E-01  1.1377264495120E+00  1.8424497217018E-01
    96  9.5000000000000E-01  1.1293408029905E+00  1.9854530790494E-01
    97  9.6000000000000E-01  1.1198062830106E+00  2.1419671120632E-01
    98  9.7000000000000E-01  1.1090994569053E+00  2.3123427596791E-01
    99  9.8000000000000E-01  1.0972006205021E+00  2.4968583193545E-01
   100  9.9000000000000E-01  1.0840940076825E+00  2.6957158422146E-01
   101  1.0000000000000E+00  1.0697679821787E+00  2.9090379231653E-01
   102  1.0100000000000E+00  1.0542152102291E+00  3.1368649118167E-01
   103  1.0200000000000E+00  1.0374328128041E+00  3.3791525678428E-01
   104  1.0300000000000E+00  1.0194224962210E+00  3.6357701820062E-01
   105  1.0400000000000E+00  1.0001906600754E+00  3.9064991815015E-01
   106  1.0500000000000E+00  9.7974848154170E-01  4.1910322355395E-01
   107  1.0600000000000E+00  9.5811197521742E-01  4.4889728742238E-01
   108  1.0700000000000E+00  9.3530202782755E-01  4.7998356307684E-01
   109  1.0800000000000E+00  9.1134440724043E-01  5.1230467139955E-01
   110  1.0900000000000E+00  8.8626974539666E-01  5.4579452148582E-01
   111  1.1000000000000E+00  8.6011349490149E-01  5.8037848474537E-01
   112  1.1100000000000E+00  8.3291585918568E-01  6.1597362216843E-01
   113  1.1200000000000E+00  8.0472169629679E-01  6.5248896413579E-01
   114  1.1300000000000E+00  7.7558039654053E-01  6.8982584181775E-01
   115  1.1400000000000E+00  7.4554573435140E-01  7.2787826887060E-01
   116  1.1500000000000E+00  7.1467569492944E-01  7.6653337180998E-01
   117  1.1600000000000E+00  6.8303227633783E-01  8.0567186711349E-01
   118  1.1700000000000E+00  6.5068126790956E-01  8.4516858278930E-01
   119  1.1800000000000E+00  6.1769200596343E-01  8.8489302183834E-01
   120  1.1900000000000E+00  5.8413710797522E-01  9.2470996474448E-01
   121  1.2000000000000E+00  5.5009218649163E-01  9.6448010784484E-01
   122  1.2100000000000E+00  5.1563554420881E-01  1.0040607341688E+00
   123  1.2200000000000E+00  4.8084785176437E-01  1.0433064130882E+00
   124  1.2300000000000E+00  4.4581180991126E-01  1.0820697248935E+00
   125  1.2400000000000E+00  4.1061179785089E-01  1.1202020062096E+00
   126  1.2500000000000E+00  3.7533350960341E-01  1.1575541119797E+00
   127  1.2600000000000E+00  3.4006358038217E-01  1.1939771895924E+00
   128  1.2700000000000E+00  3.0488920501681E-01  1.2293234605968E+00
   129  1.2800000000000E+00  2.6989775053623E-01  1.2634470053458E+00
   130  1.2900000000000E+00  2.3517636507546E-01  1.2962045458343E+00
   131  1.3000000000000E+00  2.0081158531153E-01  1.3274562219531E+00
   132  1.3100000000000E+00  1.6688894466064E-01  1.3570663563624E+00
   133  1.3200000000000E+00  1.3349258448268E-01  1.3849042032037E+00
   134  1.3300000000000E+00  1.0070487053936E-01  1.4108446759110E+00
   135  1.3400000000000E+00  6.8606016938185E-02  1.4347690494583E+00
   136  1.3500000000000E+00  3.7273719767004E-02  1.4565656324821E+00
   137  1.3600000000000E+00  6.7828025822544E-03  1.4761304048543E+00
   138  1.3700000000000E+00 -2.2795124140810E-02  1.4933676164396E+00
   139  1.3800000000000E+00 -5.1391987556383E-02  1.5081903429658E+00
   140  1.3900000000000E+00 -7.8943559036456E-02  1.5205209951512E+00
   141  1.4000000000000E+00 -1.0538974093517E-01  1.5302917774783E+00
   142  1.4100000000000E+00 -1.3067483177053E-01  1.5374450932699E+00
   143  1.4200000000000E+00 -1.5474776818283E-01  1.5419338930179E+00
   144  1.4300000000000E+00 -1.7756234215694E-01  1.5437219632252E+00
   145  1.4400000000000E+00 -1.9907739213366E-01  1.5427841533565E+00
   146  1.4500000000000E+00 -2.1925696678272E-01  1.5391065388401E+00
   147  1.4600000000000E+00 -2.3807046036510E-01  1.5326865184317E+00
   148  1.4700000000000E+00 -2.5549271877499E-01  1.5235328446272E+00
   149  1.4800000000000E+00 -2.7150411552099E-01  1.5116655862009E+00
   150  1.4900000000000E+00 -2.8609059707955E-01  1.4971160223441E+00
   151  1.5000000000000E+00 -2.9924369723216E-01  1.4799264682799E+00
   152  1.5100000000000E+00 -3.1096052017868E-01  1.4601500326395E+00
   153  1.5200000000000E+00 -3.2124369240220E-01  1.4378503072888E+00
   154  1.5300000000000E+00 -3.3010128344418E-01  1.4131009907021E+00
   155  1.5400000000000E+00 -3.3754669593142E-01  1.3859854463778E+00
   156  1.5500000000000E+00 -3.4359852537823E-01  1.3565961981862E+00
   157  1.5600000000000E+00 -3.4828039046503E-01  1.3250343649218E+00
   158  1.5700000000000E+00 -3.5162073466926E-01  1.2914090367042E+00
   159  1.5800000000000E+00 -3.5365260027381E-01  1.2558365960450E+00
   160  1.5900000000000E+00 -3.5441337596860E-01  1.2184399871088E+00
   161  1.6000000000000E+00 -3.5394452040729E-01  1.1793479451827E+00
   162  1.6100000000000E+00 -3.5229125996744E-01  1.1386941627331E+00
   163  1.6200000000000E+00 -3.4950235439747E-01  1.0966172127588E+00
   164  1.6300000000000E+00 -3.4562992800063E-01  1.0532609866567E+00
   165  1.6400000000000E+00 -3.4072921945335E-01  1.0087742909631E+00
   166  1.6500000000000E+00 -3.3485828345934E-01  9.6331006987209E-01
   167  1.6600000000000E+00 -3.2807768392361E-01  9.1702464319695E-01
   168  1.6700000000000E+00 -3.2045017633759E-01  8.7007692179931E-01
   169  1.6800000000000E+00 -3.1204038180788E-01  8.2262761161982E-01
   170  1.6900000000000E+00 -3.0291445458831E-01  7.7483841067002E-01
   171  1.7000000000000E+00 -2.9313974498006E-01  7.2687120326815E-01
   172  1.7100000000000E+00 -2.8278445949201E-01  6.7888725592400E-01
   173  1.7200000000000E+00 -2.7191732015825E-01  6.3104641926384E-01
   174  1.7300000000000E+00 -2.6060722490396E-01  5.8350634034758E-01
   175  1.7400000000000E+00 -2.4892291083466E-01  5.3642168966764E-01
   176  1.7500000000000E+00 -2.3693262229715E-01  4.8994340703228E-01
   177  1.7600000000000E+00 -2.2470378552308E-01  4.4421797042623E-01
   178  1.7700000000000E+00 -2.1230269161926E-01  3.9938669180876E-01
   179  1.7800000000000E+00 -1.9979418961142E-01  3.5558504365456E-01
   180  1.7900000000000E+00 -1.8724139118204E-01  3.1294201986715E-01
   181  1.8000000000000E+00 -1.7470538866689E-01  2.7157953449844E-01
   182  1.8100000000000E+00 -1.6224498779122E-01  2.3161186149313E-01
   183  1.8200000000000E+00 -1.4991645653376E-01  1.9314511844381E-01
   184  1.8300000000000E+00 -1.3777329140714E-01  1.5627679709321E-01
   185  1.8400000000000E+00 -1.2586600233612E-01  1.2109534305539E-01
   186  1.8500000000000E+00 -1.1424191720213E-01  8.7679786949875E-02
   187  1.8600000000000E+00 -1.0294500700288E-01  5.6099428851572E-02
   188  1.8700000000000E+00 -9.2015732452268E-02  2.6413577658927E-02
   189  1.8800000000000E+00 -8.1490912717943E-02 -1.3286533248323E-03
   190  1.8900000000000E+00 -7.1403616860343E-02 -2.7088493623458E-02
   191  1.9000000000000E+00 -6.1783078403640E-02 -5.0837604976528E-02
   192  1.9100000000000E+00 -5.2654633331702E-02 -7.2558112556541E-02
   193  1.9200000000000E+00 -4.4039681664136E-02 -9.2242578012135E-02
   194  1.9300000000000E+00 -3.5955672629031E-02 -1.0989391466204E-01
   195  1.9400000000000E+00 -2.8416113311162E-02 -1.2552524548849E-01
   196  1.9500000000000E+00 -2.1430600515814E-02 -1.3915970490344E-01
   197  1.9600000000000E+00 -1.5004875456855E-02 -1.5083018556793E-01
   198  1.9700000000000E+00 -9.1409007417266E-03 -1.6057903186128E-01
   199  1.9800000000000E+00 -3.8369589985877E-03 -1.6845768189198E-01
   200  1.9900000000000E+00  9.1222763338755E-04 -1.7452626022897E-01
   201  2.0000000000000E+00  5.1153580498018E-03 -1.7885312380863E-01
   202  2.0100000000000E+00  8.7843937757192E-03 -1.8151436373278E-01
   203  2.0200000000000E+00  1.1934382732504E-02 -1.8259326592481E-01
   204  2.0300000000000E+00  1.4583266394133E-02 -1.8217973382441E-01
   205  2.0400000000000E+00  1.6751671653256E-02 -1.8036967653361E-01
   206  2.0500000000000E+00  1.8462688795667E-02 -1.7726436600226E-01
   207  2.0600000000000E+00  1.9741637061607E-02 -1.7296976701832E-01
   208  2.0700000000000E+00  2.0615819340501E-02 -1.6759584391812E-01
   209  2.0800000000000E+00  2.1114267603781E-02 -1.6125584805758E-01
   210  2.0900000000000E+00  2.1267480729493E-02 -1.5406559018999E-01
   211  2.1000000000000E+00  2.1107156413822E-02 -1.4614270198103E-01
   212  2.1100000000000E+00  2.0665918891483E-02 -1.3760589094439E-01
   213  2.1200000000000E+00  1.9977044207224E-02 -1.2857419311660E-01
   214  2.1300000000000E+00  1.9074184788147E-02 -1.1916622779587E-01
   215  2.1400000000000E+00  1.7991095067009E-02 -1.0949945865955E-01
   216  2.1500000000000E+00  1.6761360862757E-02 -9.9689467538824E-02
   217  2.1600000000000E+00  1.5418129283751E-02 -8.9849234803674E-02
   218  2.1700000000000E+00  1.3993835701024E-02 -8.0088419858249E-02
   219  2.1800000000000E+00  1.2520017924897E-02 -7.0512828854045E-02
   220  2.1900000000000E+00  1.1026971576711E-02 -6.1223561818530E-02
   221  2.2000000000000E+00  9.5421573952637E-03 -5.2313579015862E-02
   222  2.2100000000000E+00  8.0894642149725E-03 -4.3866047505825E-02
   223  2.2200000000000E+00  6.6949594891112E-03 -3.5966142456314E-02
   224  2.2300000000000E+00  5.3835880233692E-03 -2.8694107599817E-02
   225  2.2400000000000E+00  4.1775816871366E-03 -2.2121866771026E-02
   226  2.2500000000000E+00  3.0967549351934E-03 -1.6313549754181E-02
   227  2.2600000000000E+00  2.1582637373066E-03 -1.1324918095364E-02
   228  2.2700000000000E+00  1.3766687654229E-03 -7.2040261077192E-03
   229  2.2800000000000E+00  7.6304001464168E-04 -3.9867960449838E-03
   230  2.2900000000000E+00  3.2366434999055E-04 -1.6904964216358E-03
   231  2.3000000000000E+00  7.7729509831581E-05 -4.0641979032393E-04
   232  2.3100000000000E+00 -3.8311120918273E-06  1.9859681145642E-05
   233  2.3200000000000E+00 -3.5327911696496E-06  1.8447182449140E-05
   234  2.33  0. -0.
   235  2.34 -0.  0.
   236  2.35 -0.  0.
   237  2.36  0. -0.
   238  2.37  0.  0.
   239  2.38  0.  0.
   240  2.39  0.  0.
   241  2.40  0.  0.
   242  2.41  0.  0.
   243  2.42  0.  0.
   244  2.43  0.  0.
   245  2.44  0.  0.
   246  2.45  0.  0.
   247  2.46  0.  0.
   248  2.47  0.  0.
   249  2.48  0.  0.
   250  2.49  0.  0.
   251  2.50  0.  0.
   252  2.51  0.  0.
   253  2.52  0.  0.
   254  2.53  0.  0.
   255  2.54  0.  0.
   256  2.55  0.  0.
   257  2.56  0.  0.
   258  2.57  0.  0.
   259  2.58  0.  0.
   260  2.59  0.  0.
   261  2.60  0.  0.
   262  2.61  0.  0.
   263  2.62  0.  0.
   264  2.63  0.  0.
   265  2.64  0.  0.
   266  2.65  0.  0.
   267  2.66  0.  0.
   268  2.67  0.  0.
   269  2.68  0.  0.
   270  2.69  0.  0.
   271  2.70  0.  0.
   272  2.71  0.  0.
   273  2.72  0.  0.
   274  2.73  0.  0.
   275  2.74  0.  0.
   276  2.75  0.  0.
   277  2.76  0.  0.
   278  2.77  0.  0.
   279  2.78  0.  0.
   280  2.79  0.  0.
   281  2.80  0.  0.
   282  2.81  0.  0.
   283  2.82  0.  0.
   284  2.83  0.  0.
   285  2.84  0.  0.
   286  2.85  0.  0.
   287  2.86  0.  0.
   288  2.87  0.  0.
   289  2.88  0.  0.
   290  2.89  0.  0.
   291  2.90  0.  0.
   292  2.91  0.  0.
   293  2.92  0.  0.
   294  2.93  0.  0.
   295  2.94  0.  0.
   296  2.95  0.  0.
   297  2.96  0.  0.
   298  2.97  0.  0.
   299  2.98  0.  0.
   300  2.99  0.  0.
   301  3.00  0.  0.
   302  3.01  0.  0.
   303  3.02  0.  0.
   304  3.03  0.  0.
   305  3.04  0.  0.
   306  3.05  0.  0.
   307  3.06  0.  0.
   308  3.07  0.  0.
   309  3.08  0.  0.
   310  3.09  0.  0.
   311  3.10  0.  0.
   312  3.11  0.  0.
   313  3.12  0.  0.
   314  3.13  0.  0.
   315  3.14  0.  0.
   316  3.15  0.  0.
   317  3.16  0.  0.
   318  3.17  0.  0.
   319  3.18  0.  0.
   320  3.19  0.  0.
   321  3.20  0.  0.
   322  3.21  0.  0.
   323  3.22  0.  0.
   324  3.23  0.  0.
   325  3.24  0.  0.
   326  3.25  0.  0.
   327  3.26  0.  0.
   328  3.27  0.  0.
   329  3.28  0.  0.
   330  3.29  0.  0.
   331  3.30  0.  0.
   332  3.31  0.  0.
   333  3.32  0.  0.
   334  3.33  0.  0.
   335  3.34  0.  0.
   336  3.35  0.  0.
   337  3.36  0.  0.
   338  3.37  0.  0.
   339  3.38  0.  0.
   340  3.39  0.  0.
   341  3.40  0.  0.
   342  3.41  0.  0.
   343  3.42  0.  0.
   344  3.43  0.  0.
   345  3.44  0.  0.
   346  3.45  0.  0.
   347  3.46  0.  0.
   348  3.47  0.  0.
   349  3.48  0.  0.
   350  3.49  0.  0.
   351  3.50  0.  0.
   352  3.51  0.  0.
   353  3.52  0.  0.
   354  3.53  0.  0.
   355  3.54  0.  0.
   356  3.55  0.  0.
   357  3.56  0.  0.
   358  3.57  0.  0.
   359  3.58  0.  0.
   360  3.59  0.  0.
   361  3.60  0.  0.
   362  3.61  0.  0.
   363  3.62  0.  0.
   364  3.63  0.  0.
   365  3.64  0.  0.
   366  3.65  0.  0.
   367  3.66  0.  0.
   368  3.67  0.  0.
   369  3.68  0.  0.
   370  3.69  0.  0.
   371  3.70  0.  0.
   372  3.71  0.  0.
   373  3.72  0.  0.
   374  3.73  0.  0.
   375  3.74  0.  0.
   376  3.75  0.  0.
   377  3.76  0.  0.
   378  3.77  0.  0.
   379  3.78  0.  0.
   380  3.79  0.  0.
   381  3.80  0.  0.
   382  3.81  0.  0.
   383  3.82  0.  0.
   384  3.83  0.  0.
   385  3.84  0.  0.
   386  3.85  0.  0.
   387  3.86  0.  0.
   388  3.87  0.  0.
   389  3.88  0.  0.
   390  3.89  0.  0.
   391  3.90  0.  0.
   392  3.91  0.  0.
   393  3.92  0.  0.
   394  3.93  0.  0.
   395  3.94  0.  0.
   396  3.95  0.  0.
   397  3.96  0.  0.
   398  3.97  0.  0.
   399  3.98  0.  0.
   400  3.99  0.  0.
   401  4.00  0.  0.
   402  4.01  0.  0.
   403  4.02  0.  0.
   404  4.03  0.  0.
   405  4.04  0.  0.
   406  4.05  0.  0.
   407  4.06  0.  0.
   408  4.07  0.  0.
   409  4.08  0.  0.
   410  4.09  0.  0.
   411  4.10  0.  0.
   412  4.11  0.  0.
   413  4.12  0.  0.
   414  4.13  0.  0.
   415  4.14  0.  0.
   416  4.15  0.  0.
   417  4.16  0.  0.
   418  4.17  0.  0.
   419  4.18  0.  0.
   420  4.19  0.  0.
   421  4.20  0.  0.
   422  4.21  0.  0.
   423  4.22  0.  0.
   424  4.23  0.  0.
   425  4.24  0.  0.
   426  4.25  0.  0.
   427  4.26  0.  0.
   428  4.27  0.  0.
   429  4.28  0.  0.
   430  4.29  0.  0.
   431  4.30  0.  0.
   432  4.31  0.  0.
   433  4.32  0.  0.
   434  4.33  0.  0.
   435  4.34  0.  0.
   436  4.35  0.  0.
   437  4.36  0.  0.
   438  4.37  0.  0.
   439  4.38  0.  0.
   440  4.39  0.  0.
   441  4.40  0.  0.
   442  4.41  0.  0.
   443  4.42  0.  0.
   444  4.43  0.  0.
   445  4.44  0.  0.
   446  4.45  0.  0.
   447  4.46  0.  0.
   448  4.47  0.  0.
   449  4.48  0.  0.
   450  4.49  0.  0.
   451  4.50  0.  0.
   452  4.51  0.  0.
   453  4.52  0.  0.
   454  4.53  0.  0.
   455  4.54  0.  0.
   456  4.55  0.  0.
   457  4.56  0.  0.
   458  4.57  0.  0.
   459  4.58  0.  0.
   460  4.59  0.  0.
   461  4.60  0.  0.
   462  4.61  0.  0.
   463  4.62  0.  0.
   464  4.63  0.  0.
   465  4.64  0.  0.
   466  4.65  0.  0.
   467  4.66  0.  0.
   468  4.67  0.  0.
   469  4.68  0.  0.
   470  4.69  0.  0.
   471  4.70  0.  0.
   472  4.71  0.  0.
   473  4.72  0.  0.
   474  4.73  0.  0.
   475  4.74  0.  0.
   476  4.75  0.  0.
   477  4.76  0.  0.
   478  4.77  0.  0.
   479  4.78  0.  0.
   480  4.79  0.  0.
   481  4.80  0.  0.
   482  4.81  0.  0.
   483  4.82  0.  0.
   484  4.83  0.  0.
   485  4.84  0.  0.
   486  4.85  0.  0.
   487  4.86  0.  0.
   488  4.87  0.  0.
   489  4.88  0.  0.
   490  4.89  0.  0.
   491  4.90  0.  0.
   492  4.91  0.  0.
   493  4.92  0.  0.
   494  4.93  0.  0.
   495  4.94  0.  0.
   496  4.95  0.  0.
   497  4.96  0.  0.
   498  4.97  0.  0.
   499  4.98  0.  0.
   500  4.99  0.  0.
   501  5.00  0.  0.
   502  5.01  0.  0.
   503  5.02  0.  0.
   504  5.03  0.  0.
   505  5.04  0.  0.
   506  5.05  0.  0.
   507  5.06  0.  0.
   508  5.07  0.  0.
   509  5.08  0.  0.
   510  5.09  0.  0.
   511  5.10  0.  0.
   512  5.11  0.  0.
   513  5.12  0.  0.
   514  5.13  0.  0.
   515  5.14  0.  0.
   516  5.15  0.  0.
   517  5.16  0.  0.
   518  5.17  0.  0.
   519  5.18  0.  0.
   520  5.19  0.  0.
   521  5.20  0.  0.
   522  5.21  0.  0.
   523  5.22  0.  0.
   524  5.23  0.  0.
   525  5.24  0.  0.
   526  5.25  0.  0.
   527  5.26  0.  0.
   528  5.27  0.  0.
   529  5.28  0.  0.
   530  5.29  0.  0.
   531  5.30  0.  0.
   532  5.31  0.  0.
   533  5.32  0.  0.
   534  5.33  0.  0.
   535  5.34  0.  0.
   536  5.35  0.  0.
   537  5.36  0.  0.
   538  5.37  0.  0.
   539  5.38  0.  0.
   540  5.39  0.  0.
   541  5.40  0.  0.
   542  5.41  0.  0.
   543  5.42  0.  0.
   544  5.43  0.  0.
   545  5.44  0.  0.
   546  5.45  0.  0.
   547  5.46  0.  0.
   548  5.47  0.  0.
   549  5.48  0.  0.
   550  5.49  0.  0.
   551  5.50  0.  0.
   552  5.51  0.  0.
   553  5.52  0.  0.
   554  5.53  0.  0.
   555  5.54  0.  0.
   556  5.55  0.  0.
   557  5.56  0.  0.
   558  5.57  0.  0.
   559  5.58  0.  0.
   560  5.59  0.  0.
   561  5.60  0.  0.
   562  5.61  0.  0.
   563  5.62  0.  0.
   564  5.63  0.  0.
   565  5.64  0.  0.
   566  5.65  0.  0.
   567  5.66  0.  0.
   568  5.67  0.  0.
   569  5.68  0.  0.
   570  5.69  0.  0.
   571  5.70  0.  0.
   572  5.71  0.  0.
   573  5.72  0.  0.
   574  5.73  0.  0.
   575  5.74  0.  0.
   576  5.75  0.  0.
   577  5.76  0.  0.
   578  5.77  0.  0.
   579  5.78  0.  0.
   580  5.79  0.  0.
   581  5.80  0.  0.
   582  5.81  0.  0.
   583  5.82  0.  0.
   584  5.83  0.  0.
   585  5.84  0.  0.
   586  5.85  0.  0.
   587  5.86  0.  0.
   588  5.87  0.  0.
   589  5.88  0.  0.
   590  5.89  0.  0.
   591  5.90  0.  0.
   592  5.91  0.  0.
   593  5.92  0.  0.
   594  5.93  0.  0.
   595  5.94  0.  0.
   596  5.95  0.  0.
   597  5.96  0.  0.
   598  5.97  0.  0.
   599  5.98  0.  0.
   600  5.99  0.  0.
   1                         5.8987446768239E+00  8.2770473332153E-01
     1  0.0000000000000E+00 -2.5413586512979E-10  5.0879347696792E-10
     2  1.0000000000000E-02  2.7716696846738E-04 -6.9873311218978E-05
     3  2.0000000000000E-02  1.1096106193379E-03 -2.8137485486227E-04
     4  3.0000000000000E-02  2.5001452396063E-03 -6.4012302859014E-04
     5  4.0000000000000E-02  4.4534149463921E-03 -1.1553939957043E-03
     6  5.0000000000000E-02  6.9758246227578E-03 -1.8399908952699E-03
     7  6.0000000000000E-02  1.0075444178692E-02 -2.7100626456799E-03
     8  7.0000000000000E-02  1.3761887077784E-02 -3.7848742294200E-03
     9  8.0000000000000E-02  1.8046164324261E-02 -5.0865308555820E-03
    10  9.0000000000000E-02  2.2940515348330E-02 -6.6396588827236E-03
    11  1.0000000000000E-01  2.8458217458163E-02 -8.4710468436388E-03
    12  1.1000000000000E-01  3.4613375742021E-02 -1.0609250340813E-02
    13  1.2000000000000E-01  4.1420695502209E-02 -1.3084164972942E-02
    14  1.3000000000000E-01  4.8895239481771E-02 -1.5926571804900E-02
    15  1.4000000000000E-01  5.7052172303525E-02 -1.9167660202649E-02
    16  1.5000000000000E-01  6.5906494677650E-02 -2.2838533117622E-02
    17  1.6000000000000E-01  7.5472770047256E-02 -2.6969700119484E-02
    18  1.7000000000000E-01  8.5764846430167E-02 -3.1590563639604E-02
    19  1.8000000000000E-01  9.6795576278539E-02 -3.6728903998336E-02
    20  1.9000000000000E-01  1.0857653721528E-01 -4.2410368845951E-02
    21  2.0000000000000E-01  1.2111775651715E-01 -4.8657972648972E-02
    22  2.1000000000000E-01  1.3442744219855E-01 -5.5491611800484E-02
    23  2.2000000000000E-01  1.4851172350755E-01 -6.2927600824785E-02
    24  2.3000000000000E-01  1.6337440357670E-01 -7.0978234984304E-02
    25  2.4000000000000E-01  1.7901672687628E-01 -7.9651384381157E-02
    26  2.5000000000000E-01  1.9543716399761E-01 -8.8950124378727E-02
    27  2.6000000000000E-01  2.1263121614957E-01 -9.8872406852440E-02
    28  2.7000000000000E-01  2.3059124158397E-01 -1.0941077641605E-01
    29  2.8000000000000E-01  2.4930630597632E-01 -1.2055213536331E-01
    30  2.9000000000000E-01  2.6876205857912E-01 -1.3227756061851E-01
    31  3.0000000000000E-01  2.8894063573705E-01 -1.4456217550668E-01
    32  3.1000000000000E-01  3.0982059310950E-01 -1.5737507863992E-01
    33  3.2000000000000E-01  3.3137686768725E-01 -1.7067933167438E-01
    34  3.3000000000000E-01  3.5358077042007E-01 -1.8443200712838E-01
    35  3.4000000000000E-01  3.7640000999151E-01 -1.9858429687099E-01
    36  3.5000000000000E-01  3.9979874799035E-01 -2.1308168129657E-01
    37  3.6000000000000E-01  4.2373768543617E-01 -2.2786415860192E-01
    38  3.7000000000000E-01  4.4817418032296E-01 -2.4286653298161E-01
    39  3.8000000000000E-01  4.7306239555157E-01 -2.5801875996228E-01
    40  3.9000000000000E-01  4.9835347633251E-01 -2.7324634651156E-01
    41  4.0000000000000E-01  5.2399575585716E-01 -2.8847080298918E-01
    42  4.1000000000000E-01  5.4993498776085E-01 -3.0361014346134E-01
    43  4.2000000000000E-01  5.7611460363828E-01 -3.1857943038032E-01
    44  4.3000000000000E-01  6.0247599362237E-01 -3.3329135914501E-01
    45  4.4000000000000E-01  6.2895880780511E-01 -3.4765687760910E-01
    46  4.5000000000000E-01  6.5550127606435E-01 -3.6158583519739E-01
    47  4.6000000000000E-01  6.8204054366772E-01 -3.7498765593050E-01
    48  4.7000000000000E-01  7.0851301985374E-01 -3.8777202934980E-01
    49  4.8000000000000E-01  7.3485473644471E-01 -3.9984961307865E-01
    50  4.9000000000000E-01  7.6100171342603E-01 -4.1113274055916E-01
    51  5.0000000000000E-01  7.8689032833429E-01 -4.2153612736549E-01
    52  5.1000000000000E-01  8.1245768623327E-01 -4.3097756941902E-01
    53  5.2000000000000E-01  8.3764198702273E-01 -4.3937862641838E-01
    54  5.3000000000000E-01  8.6238288682123E-01 -4.4666528384909E-01
    55  5.4000000000000E-01  8.8662185019076E-01 -4.5276858705422E-01
    56  5.5000000000000E-01  9.1030249002843E-01 -4.5762524102809E-01
    57  5.6000000000000E-01  9.3337089203764E-01 -4.6117816983961E-01
    58  5.7000000000000E-01  9.5577592080892E-01 -4.6337702989746E-01
    59  5.8000000000000E-01  9.7746950468661E-01 -4.6417867163550E-01
    60  5.9000000000000E-01  9.9840689677203E-01 -4.6354754461937E-01
    61  6.0000000000000E-01  1.0185469096146E+00 -4.6145604155173E-01
    62  6.1000000000000E-01  1.0378521213681E+00 -4.5788477717955E-01
    63  6.2000000000000E-01  1.0562890514382E+00 -4.5282279867875E-01
    64  6.3000000000000E-01  1.0738283039173E+00 -4.4626772470305E-01
    65  6.4000000000000E-01  1.0904446773909E+00 -4.3822581093112E-01
    66  6.5000000000000E-01  1.1061172400048E+00 -4.2871194062254E-01
    67  6.6000000000000E-01  1.1208293690004E+00 -4.1774953939221E-01
    68  6.7000000000000E-01  1.1345687542529E+00 -4.0537041412962E-01
    69  6.8000000000000E-01  1.1473273656839E+00 -3.9161451671492E-01
    70  6.9000000000000E-01  1.1591013847618E+00 -3.7652963391384E-01
    71  7.0000000000000E-01  1.1698911006412E+00 -3.6017100555833E-01
    72  7.1000000000000E-01  1.1797007718353E+00 -3.4260087383477E-01
    73  7.2000000000000E-01  1.1885384546481E+00 -3.2388796719783E-01
    74  7.3000000000000E-01  1.1964157999195E+00 -3.0410692309974E-01
    75  7.4000000000000E-01  1.2033478199476E+00 -2.8333765436416E-01
    76  7.5000000000000E-01  1.2093526277561E+00 -2.6166466463504E-01
    77  7.6000000000000E-01  1.2144511511496E+00 -2.3917631888715E-01
    78  7.7000000000000E-01  1.2186668242656E+00 -2.1596407549024E-01