I     ONCVPSP-4.0.1  r_core=   2.36210   2.30625   2.50771
     53.0000      7.0000      230118    zatom,zion,pspd
     8       2   2     4   600     0    pspcod,pspxc,lmax,lloc,mmax,r2well
  5.99000000  4.00000000  0.00000000    rchrg fchrg qchrg
     2     2     2     0     0    nproj
     1     1           extension_switch
   0                         6.4607794762500E+00  7.5284512799522E-01
     1  0.0000000000000E+00  2.5596358366187E-11 -7.6797745246493E-11
     2  1.0000000000000E-02  1.8254451435485E-02 -2.5443025540832E-03
     3  2.0000000000000E-02  3.6527611233327E-02 -5.1327301932000E-03
     4  3.0000000000000E-02  5.4838031212524E-02 -7.8090239490467E-03
     5  4.0000000000000E-02  7.3203951093979E-02 -1.0616159512604E-02
     6  5.0000000000000E-02  9.1643144916505E-02 -1.3595971459161E-02
     7  6.0000000000000E-02  1.1017277039273E-01 -1.6788785693264E-02
     8  7.0000000000000E-02  1.2880922215474E-01 -2.0233062763123E-02
     9  8.0000000000000E-02  1.4756798981366E-01 -2.3965054617204E-02
    10  9.0000000000000E-02  1.6646352172574E-01 -2.8018477280818E-02
    11  1.0000000000000E-01  1.8550909532009E-01 -3.2424201817941E-02
    12  1.1000000000000E-01  2.0471669479971E-01 -3.7209965814236E-02
    13  1.2000000000000E-01  2.2409689697930E-01 -4.2400107471904E-02
    14  1.3000000000000E-01  2.4365876596971E-01 -4.8015324246930E-02
    15  1.4000000000000E-01  2.6340975736039E-01 -5.4072457785187E-02
    16  1.5000000000000E-01  2.8335563248914E-01 -6.0584306727235E-02
    17  1.6000000000000E-01  3.0350038332171E-01 -6.7559468753661E-02
    18  1.7000000000000E-01  3.2384616839421E-01 -7.5002213034713E-02
    19  1.8000000000000E-01  3.4439326019829E-01 -8.2912384031495E-02
    20  1.9000000000000E-01  3.6514000431387E-01 -9.1285337372173E-02
    21  2.0000000000000E-01  3.8608279051705E-01 -1.0011190829765E-01
    22  2.1000000000000E-01  4.0721603601163E-01 -1.0937841293788E-01
    23  2.2000000000000E-01  4.2853218085348E-01 -1.1906668244474E-01
    24  2.3000000000000E-01  4.5002169555653E-01 -1.2915412977119E-01
    25  2.4000000000000E-01  4.7167310078928E-01 -1.3961384865166E-01
    26  2.5000000000000E-01  4.9347299899131E-01 -1.5041474410594E-01
    27  2.6000000000000E-01  5.1540611766138E-01 -1.6152169356121E-01
    28  2.7000000000000E-01  5.3745536399203E-01 -1.7289573746463E-01
    29  2.8000000000000E-01  5.5960189045167E-01 -1.8449429804450E-01
    30  2.9000000000000E-01  5.8182517084385E-01 -1.9627142467276E-01
    31  3.0000000000000E-01  6.0410308630514E-01 -2.0817806408691E-01
    32  3.1000000000000E-01  6.2641202063892E-01 -2.2016235354681E-01
    33  3.2000000000000E-01  6.4872696432212E-01 -2.3216993483281E-01
    34  3.3000000000000E-01  6.7102162646664E-01 -2.4414428683693E-01
    35  3.4000000000000E-01  6.9326855396627E-01 -2.5602707436066E-01
    36  3.5000000000000E-01  7.1543925701536E-01 -2.6775851061093E-01
    37  3.6000000000000E-01  7.3750434014565E-01 -2.7927773078254E-01
    38  3.7000000000000E-01  7.5943363789424E-01 -2.9052317403021E-01
    39  3.8000000000000E-01  7.8119635418891E-01 -3.0143297106801E-01
    40  3.9000000000000E-01  8.0276120451569E-01 -3.1194533458883E-01
    41  4.0000000000000E-01  8.2409655991981E-01 -3.2199894967135E-01
    42  4.1000000000000E-01  8.4517059188359E-01 -3.3153336133832E-01
    43  4.2000000000000E-01  8.6595141712439E-01 -3.4048935644667E-01
    44  4.3000000000000E-01  8.8640724136156E-01 -3.4880933712785E-01
    45  4.4000000000000E-01  9.0650650111483E-01 -3.5643768305556E-01
    46  4.5000000000000E-01  9.2621800261585E-01 -3.6332109989723E-01
    47  4.6000000000000E-01  9.4551105694116E-01 -3.6940895140470E-01
    48  4.7000000000000E-01  9.6435561050758E-01 -3.7465357271820E-01
    49  4.8000000000000E-01  9.8272237010973E-01 -3.7901056259526E-01
    50  4.9000000000000E-01  1.0005829217247E+00 -3.8243905243089E-01
    51  5.0000000000000E-01  1.0179098423591E+00 -3.8490195010757E-01
    52  5.1000000000000E-01  1.0346768042694E+00 -3.8636615690061E-01
    53  5.2000000000000E-01  1.0508586709476E+00 -3.8680275586644E-01
    54  5.3000000000000E-01  1.0664315843293E+00 -3.8618717035560E-01
    55  5.4000000000000E-01  1.0813730427500E+00 -3.8449929151799E-01
    56  5.5000000000000E-01  1.0956619692486E+00 -3.8172357390383E-01
    57  5.6000000000000E-01  1.1092787698919E+00 -3.7784909850671E-01
    58  5.7000000000000E-01  1.1222053818735E+00 -3.7286960284512E-01
    59  5.8000000000000E-01  1.1344253112184E+00 -3.6678347793281E-01
    60  5.9000000000000E-01  1.1459236600059E+00 -3.5959373224467E-01
    61  6.0000000000000E-01  1.1566871431068E+00 -3.5130792304164E-01
    62  6.1000000000000E-01  1.1667040945111E+00 -3.4193805567386E-01
    63  6.2000000000000E-01  1.1759644634022E+00 -3.3150045173281E-01
    64  6.3000000000000E-01  1.1844598002165E+00 -3.2001558716999E-01
    65  6.4000000000000E-01  1.1921832330020E+00 -3.0750790173858E-01
    66  6.5000000000000E-01  1.1991294344672E+00 -2.9400558134458E-01
    67  6.6000000000000E-01  1.2052945801818E+00 -2.7954031511207E-01
    68  6.7000000000000E-01  1.2106762984609E+00 -2.6414702917330E-01
    69  6.8000000000000E-01  1.2152736125278E+00 -2.4786359938532E-01
    70  6.9000000000000E-01  1.2190868756112E+00 -2.3073054534881E-01
    71  7.0000000000000E-01  1.2221176996845E+00 -2.1279070826248E-01
    72  7.1000000000000E-01  1.2243688786063E+00 -1.9408891528328E-01
    73  7.2000000000000E-01  1.2258443064623E+00 -1.7467163318027E-01
    74  7.3000000000000E-01  1.2265488919441E+00 -1.5458661416500E-01
    75  7.4000000000000E-01  1.2264884696312E+00 -1.3388253685473E-01
    76  7.5000000000000E-01  1.2256697090624E+00 -1.1260864537413E-01
    77  7.6000000000000E-01  1.2241000224994E+00 -9.0814389626767E-02
    78  7.7000000000000E-01  1.2217874722914E+00 -6.8549069769302E-02
    79  7.8000000000000E-01  1.2187406787485E+00 -4.5861487897643E-02
    80  7.9000000000000E-01  1.2149687294251E+00 -2.2799609906460E-02
    81  8.0000000000000E-01  1.2104810906976E+00  5.8975958898943E-04
    82  8.1000000000000E-01  1.2052875224962E+00  2.4261286476617E-02
    83  8.2000000000000E-01  1.1993979970230E+00  4.8171397845038E-02
    84  8.3000000000000E-01  1.1928226222468E+00  7.2278551626378E-02
    85  8.4000000000000E-01  1.1855715709213E+00  9.6543482821297E-02
    86  8.5000000000000E-01  1.1776550158229E+00  1.2092942412896E-01
    87  8.6000000000000E-01  1.1690830718438E+00  1.4540229901095E-01
    88  8.7000000000000E-01  1.1598657455138E+00  1.6993088544179E-01
    89  8.8000000000000E-01  1.1500128924533E+00  1.9448694883894E-01
    90  8.9000000000000E-01  1.1395341831876E+00  2.1904534292081E-01
    91  9.0000000000000E-01  1.1284390776714E+00  2.4358407750852E-01
    92  9.1000000000000E-01  1.1167368087927E+00  2.6808435256667E-01
    93  9.2000000000000E-01  1.1044363750386E+00  2.9253055806461E-01
    94  9.3000000000000E-01  1.0915465424162E+00  3.1691023953440E-01
    95  9.4000000000000E-01  1.0780758556369E+00  3.4121402949809E-01
    96  9.5000000000000E-01  1.0640326584773E+00  3.6543554523704E-01
    97  9.6000000000000E-01  1.0494251231419E+00  3.8957125367370E-01
    98  9.7000000000000E-01  1.0342612883639E+00  4.1362030443141E-01
    99  9.8000000000000E-01  1.0185491058886E+00  4.3758433242712E-01
   100  9.9000000000000E-01  1.0022964949027E+00  4.6146723163259E-01
   101  1.0000000000000E+00  9.8551140388314E-01  4.8527490191022E-01
   102  1.0100000000000E+00  9.6820187926530E-01  5.0901497108649E-01
   103  1.0200000000000E+00  9.5037614025132E-01  5.3269649466859E-01
   104  1.0300000000000E+00  9.3204265900954E-01  5.5632963583356E-01
   105  1.0400000000000E+00  9.1321024545235E-01  5.7992532852463E-01
   106  1.0500000000000E+00  8.9388813572035E-01  6.0349492667283E-01
   107  1.0600000000000E+00  8.7408608344958E-01  6.2704984272174E-01
   108  1.0700000000000E+00  8.5381445285451E-01  6.5060117876866E-01
   109  1.0800000000000E+00  8.3308431262301E-01  6.7415935374450E-01
   110  1.0900000000000E+00  8.1190752959176E-01  6.9773373013538E-01
   111  1.1000000000000E+00  7.9029686115115E-01  7.2133224380234E-01
   112  1.1100000000000E+00  7.6826604531826E-01  7.4496104047804E-01
   113  1.1200000000000E+00  7.4582988741524E-01  7.6862412251322E-01
   114  1.1300000000000E+00  7.2300434229826E-01  7.9232300940801E-01
   115  1.1400000000000E+00  6.9980659109963E-01  8.1605641559636E-01
   116  1.1500000000000E+00  6.7625511147189E-01  8.3981994885325E-01
   117  1.1600000000000E+00  6.5236974035887E-01  8.6360583256748E-01
   118  1.1700000000000E+00  6.2817172836291E-01  8.8740265496569E-01
   119  1.1800000000000E+00  6.0368378483163E-01  9.1119514818783E-01
   120  1.1900000000000E+00  5.7893011284887E-01  9.3496399990302E-01
   121  1.2000000000000E+00  5.5393643338548E-01  9.5868569991513E-01
   122  1.2100000000000E+00  5.2872999794214E-01  9.8233242394737E-01
   123  1.2200000000000E+00  5.0333958910218E-01  1.0058719565085E+00
   124  1.2300000000000E+00  4.7779550850282E-01  1.0292676544399E+00
   125  1.2400000000000E+00  4.5212955183062E-01  1.0524784524209E+00
   126  1.2500000000000E+00  4.2637497054874E-01  1.0754589113668E+00
   127  1.2600000000000E+00  4.0056642017016E-01  1.0981593103104E+00
   128  1.2700000000000E+00  3.7473989500056E-01  1.1205257819876E+00
   129  1.2800000000000E+00  3.4893264938761E-01  1.1425004919835E+00
   130  1.2900000000000E+00  3.2318310562686E-01  1.1640218609207E+00
   131  1.3000000000000E+00  2.9753074879016E-01  1.1850248287930E+00
   132  1.3100000000000E+00  2.7201600885739E-01  1.2054411601775E+00
   133  1.3200000000000E+00  2.4668013064606E-01  1.2251997886845E+00
   134  1.3300000000000E+00  2.2156503214546E-01  1.2442271986445E+00
   135  1.3400000000000E+00  1.9671315197136E-01  1.2624478416784E+00
   136  1.3500000000000E+00  1.7216728676242E-01  1.2797845854603E+00
   137  1.3600000000000E+00  1.4797041943982E-01  1.2961591916582E+00
   138  1.3700000000000E+00  1.2416553934714E-01  1.3114928197373E+00
   139  1.3800000000000E+00  1.0079545537558E-01  1.3257065530282E+00
   140  1.3900000000000E+00  7.7902603261365E-02  1.3387219432071E+00
   141  1.4000000000000E+00  5.5528848314988E-02  1.3504615691061E+00
   142  1.4100000000000E+00  3.3715284907236E-02  1.3608496055687E+00
   143  1.4200000000000E+00  1.2502034091862E-02  1.3698123978998E+00
   144  1.4300000000000E+00 -8.0719592094329E-03  1.3772790373192E+00
   145  1.4400000000000E+00 -2.7969127999032E-02  1.3831819327275E+00
   146  1.4500000000000E+00 -4.7153482487208E-02  1.3874573740256E+00
   147  1.4600000000000E+00 -6.5590805369143E-02  1.3900460821962E+00
   148  1.4700000000000E+00 -8.3248841594515E-02  1.3908937413654E+00
   149  1.4800000000000E+00 -1.0009748113845E-01  1.3899515081033E+00
   150  1.4900000000000E+00 -1.1610893330352E-01  1.3871764933051E+00
   151  1.5000000000000E+00 -1.3125789111494E-01  1.3825322121120E+00
   152  1.5100000000000E+00 -1.4552168441479E-01  1.3759889974882E+00
   153  1.5200000000000E+00 -1.5888042031624E-01  1.3675243732580E+00
   154  1.5300000000000E+00 -1.7131710974424E-01  1.3571233826378E+00
   155  1.5400000000000E+00 -1.8281777886567E-01  1.3447788685540E+00
   156  1.5500000000000E+00 -1.9337156429810E-01  1.3304917023298E+00
   157  1.5600000000000E+00 -2.0297079108171E-01  1.3142709576474E+00
   158  1.5700000000000E+00 -2.1161103250370E-01  1.2961340270380E+00
   159  1.5800000000000E+00 -2.1929115097658E-01  1.2761066785287E+00
   160  1.5900000000000E+00 -2.2601331929173E-01  1.2542230504706E+00
   161  1.6000000000000E+00 -2.3178302169561E-01  1.2305255829901E+00
   162  1.6100000000000E+00 -2.3660903436764E-01  1.2050648849387E+00
   163  1.6200000000000E+00 -2.4050338501497E-01  1.1778995356614E+00
   164  1.6300000000000E+00 -2.4348129143914E-01  1.1490958213646E+00
   165  1.6400000000000E+00 -2.4556107907186E-01  1.1187274063246E+00
   166  1.6500000000000E+00 -2.4676407762090E-01  1.0868749396477E+00
   167  1.6600000000000E+00 -2.4711449711126E-01  1.0536255987583E+00
   168  1.6700000000000E+00 -2.4663928375013E-01  1.0190725712555E+00
   169  1.6800000000000E+00 -2.4536795618196E-01  9.8331447719998E-01
   170  1.6900000000000E+00 -2.4333242284763E-01  9.4645473442792E-01
   171  1.7000000000000E+00 -2.4056678141676E-01  9.0860087086296E-01
   172  1.7100000000000E+00 -2.3710710061214E-01  8.6986378176987E-01
   173  1.7200000000000E+00 -2.3299120180890E-01  8.3035707637041E-01
   174  1.7300000000000E+00 -2.2825858617832E-01  7.9019771451169E-01
   175  1.7400000000000E+00 -2.2295039134541E-01  7.4950674271394E-01
   176  1.7500000000000E+00 -2.1710921064750E-01  7.0840877811083E-01
   177  1.7600000000000E+00 -2.1077888656393E-01  6.6703131477743E-01
   178  1.7700000000000E+00 -2.0400429668790E-01  6.2550401396988E-01
   179  1.7800000000000E+00 -1.9683113252033E-01  5.8395797234685E-01
   180  1.7900000000000E+00 -1.8930567267320E-01  5.4252497462364E-01
   181  1.8000000000000E+00 -1.8147455200949E-01  5.0133673604057E-01
   182  1.8100000000000E+00 -1.7338452823483E-01  4.6052413972059E-01
   183  1.8200000000000E+00 -1.6508224749126E-01  4.2021647415544E-01
   184  1.8300000000000E+00 -1.5661401051679E-01  3.8054067608460E-01
   185  1.8400000000000E+00 -1.4802554093619E-01  3.4162058401838E-01
   186  1.8500000000000E+00 -1.3936175723891E-01  3.0357620760616E-01
   187  1.8600000000000E+00 -1.3066654997892E-01  2.6652301796218E-01
   188  1.8700000000000E+00 -1.2198256569960E-01  2.3057126393634E-01
   189  1.8800000000000E+00 -1.1335099904275E-01  1.9582531915478E-01
   190  1.8900000000000E+00 -1.0481139444811E-01  1.6238306445985E-01
   191  1.9000000000000E+00 -9.6401458784957E-02  1.3033531014820E-01
   192  1.9100000000000E+00 -8.8156886183277E-02  9.9765262140936E-02
   193  1.9200000000000E+00 -8.0111196248858E-02  7.0748035928487E-02
   194  1.9300000000000E+00 -7.2295586754580E-02  4.3350221810150E-02
   195  1.9400000000000E+00 -6.4738801799798E-02  1.7629504600318E-02
   196  1.9500000000000E+00 -5.7467016322409E-02 -6.3656593977326E-03
   197  1.9600000000000E+00 -5.0503737733315E-02 -2.8596305744785E-02
   198  1.9700000000000E+00 -4.3869725323495E-02 -4.9033163549284E-02
   199  1.9800000000000E+00 -3.7582927970754E-02 -6.7656793906465E-02
   200  1.9900000000000E+00 -3.1658440540357E-02 -8.4457663970458E-02
   201  2.0000000000000E+00 -2.6108479245414E-02 -9.9436155972904E-02
   202  2.0100000000000E+00 -2.0942376097283E-02 -1.1260251096136E-01
   203  2.0200000000000E+00 -1.6166592441942E-02 -1.2397670748503E-01
   204  2.0300000000000E+00 -1.1784751439094E-02 -1.3358827592503E-01
   205  2.0400000000000E+00 -7.7976892157125E-03 -1.4147604958772E-01
   206  2.0500000000000E+00 -4.2035242810367E-03 -1.4768785416587E-01
   207  2.0600000000000E+00 -9.9774466810995E-04 -1.5228013758160E-01
   208  2.0700000000000E+00  1.8266878615255E-03 -1.5531754265478E-01
   209  2.0800000000000E+00  4.2792173360316E-03 -1.5687242545087E-01
   210  2.0900000000000E+00  6.3715577149797E-03 -1.5702432254354E-01
   211  2.1000000000000E+00  8.1175426629025E-03 -1.5585937078627E-01
   212  2.1100000000000E+00  9.5329620718817E-03 -1.5346968354771E-01
   213  2.1200000000000E+00  1.0635386538316E-02 -1.4995268765686E-01
   214  2.1300000000000E+00  1.1443981088875E-02 -1.4541042559991E-01
   215  2.1400000000000E+00  1.1979309524865E-02 -1.3994882775438E-01
   216  2.1500000000000E+00  1.2263130821071E-02 -1.3367695966456E-01
   217  2.1600000000000E+00  1.2318189075339E-02 -1.2670624955681E-01
   218  2.1700000000000E+00  1.2167998546344E-02 -1.1914970142554E-01
   219  2.1800000000000E+00  1.1836625353990E-02 -1.1112109913660E-01
   220  2.1900000000000E+00  1.1348467438434E-02 -1.0273420706077E-01
   221  2.2000000000000E+00  1.0728035384563E-02 -9.4101975784387E-02
   222  2.2100000000000E+00  9.9997301139811E-03 -8.5335741584000E-02
   223  2.2200000000000E+00  9.1876204511712E-03 -7.6544429498241E-02
   224  2.2300000000000E+00  8.3152812421000E-03 -6.7833941806286E-02
   225  2.2400000000000E+00  7.4055159621774E-03 -5.9306209631334E-02
   226  2.2500000000000E+00  6.4792640365029E-03 -5.1055788382356E-02
   227  2.2600000000000E+00  5.5547126482944E-03 -4.3167067675239E-02
   228  2.2700000000000E+00  4.6515427421665E-03 -3.5726937486723E-02
   229  2.2800000000000E+00  3.7889872096018E-03 -2.8818882894044E-02
   230  2.2900000000000E+00  2.9842249418581E-03 -2.2518084420177E-02
   231  2.3000000000000E+00  2.2526743877824E-03 -1.6892216557866E-02
   232  2.3100000000000E+00  1.6077718012555E-03 -1.2000713966895E-02
   233  2.3200000000000E+00  1.0608716553741E-03 -7.8944123278904E-03
   234  2.3300000000000E+00  6.2137803824484E-04 -4.6169362191050E-03
   235  2.3400000000000E+00  2.9396356874021E-04 -2.1841544883954E-03
   236  2.3500000000000E+00  9.0320457065884E-05 -6.7228426252626E-04
   237  2.3600000000000E+00  6.4446675904890E-06 -4.8428842582765E-05
   238  2.3700000000000E+00 -5.2279233540338E-06  3.8848677366985E-05
   239  2.3800000000000E+00  1.4917190622600E-06 -1.1073041946584E-05
   240  2.39  0. -0.
   241  2.40 -0.  0.
   242  2.41  0. -0.
   243  2.42  0.  0.
   244  2.43  0.  0.
   245  2.44  0.  0.
   246  2.45  0.  0.
   247  2.46  0.  0.
   248  2.47  0.  0.
   249  2.48  0.  0.
   250  2.49  0.  0.
   251  2.50  0.  0.
   252  2.51  0.  0.
   253  2.52  0.  0.
   254  2.53  0.  0.
   255  2.54  0.  0.
   256  2.55  0.  0.
   257  2.56  0.  0.
   258  2.57  0.  0.
   259  2.58  0.  0.
   260  2.59  0.  0.
   261  2.60  0.  0.
   262  2.61  0.  0.
   263  2.62  0.  0.
   264  2.63  0.  0.
   265  2.64  0.  0.
   266  2.65  0.  0.
   267  2.66  0.  0.
   268  2.67  0.  0.
   269  2.68  0.  0.
   270  2.69  0.  0.
   271  2.70  0.  0.
   272  2.71  0.  0.
   273  2.72  0.  0.
   274  2.73  0.  0.
   275  2.74  0.  0.
   276  2.75  0.  0.
   277  2.76  0.  0.
   278  2.77  0.  0.
   279  2.78  0.  0.
   280  2.79  0.  0.
   281  2.80  0.  0.
   282  2.81  0.  0.
   283  2.82  0.  0.
   284  2.83  0.  0.
   285  2.84  0.  0.
   286  2.85  0.  0.
   287  2.86  0.  0.
   288  2.87  0.  0.
   289  2.88  0.  0.
   290  2.89  0.  0.
   291  2.90  0.  0.
   292  2.91  0.  0.
   293  2.92  0.  0.
   294  2.93  0.  0.
   295  2.94  0.  0.
   296  2.95  0.  0.
   297  2.96  0.  0.
   298  2.97  0.  0.
   299  2.98  0.  0.
   300  2.99  0.  0.
   301  3.00  0.  0.
   302  3.01  0.  0.
   303  3.02  0.  0.
   304  3.03  0.  0.
   305  3.04  0.  0.
   306  3.05  0.  0.
   307  3.06  0.  0.
   308  3.07  0.  0.
   309  3.08  0.  0.
   310  3.09  0.  0.
   311  3.10  0.  0.
   312  3.11  0.  0.
   313  3.12  0.  0.
   314  3.13  0.  0.
   315  3.14  0.  0.
   316  3.15  0.  0.
   317  3.16  0.  0.
   318  3.17  0.  0.
   319  3.18  0.  0.
   320  3.19  0.  0.
   321  3.20  0.  0.
   322  3.21  0.  0.
   323  3.22  0.  0.
   324  3.23  0.  0.
   325  3.24  0.  0.
   326  3.25  0.  0.
   327  3.26  0.  0.
   328  3.27  0.  0.
   329  3.28  0.  0.
   330  3.29  0.  0.
   331  3.30  0.  0.
   332  3.31  0.  0.
   333  3.32  0.  0.
   334  3.33  0.  0.
   335  3.34  0.  0.
   336  3.35  0.  0.
   337  3.36  0.  0.
   338  3.37  0.  0.
   339  3.38  0.  0.
   340  3.39  0.  0.
   341  3.40  0.  0.
   342  3.41  0.  0.
   343  3.42  0.  0.
   344  3.43  0.  0.
   345  3.44  0.  0.
   346  3.45  0.  0.
   347  3.46  0.  0.
   348  3.47  0.  0.
   349  3.48  0.  0.
   350  3.49  0.  0.
   351  3.50  0.  0.
   352  3.51  0.  0.
   353  3.52  0.  0.
   354  3.53  0.  0.
   355  3.54  0.  0.
   356  3.55  0.  0.
   357  3.56  0.  0.
   358  3.57  0.  0.
   359  3.58  0.  0.
   360  3.59  0.  0.
   361  3.60  0.  0.
   362  3.61  0.  0.
   363  3.62  0.  0.
   364  3.63  0.  0.
   365  3.64  0.  0.
   366  3.65  0.  0.
   367  3.66  0.  0.
   368  3.67  0.  0.
   369  3.68  0.  0.
   370  3.69  0.  0.
   371  3.70  0.  0.
   372  3.71  0.  0.
   373  3.72  0.  0.
   374  3.73  0.  0.
   375  3.74  0.  0.
   376  3.75  0.  0.
   377  3.76  0.  0.
   378  3.77  0.  0.
   379  3.78  0.  0.
   380  3.79  0.  0.
   381  3.80  0.  0.
   382  3.81  0.  0.
   383  3.82  0.  0.
   384  3.83  0.  0.
   385  3.84  0.  0.
   386  3.85  0.  0.
   387  3.86  0.  0.
   388  3.87  0.  0.
   389  3.88  0.  0.
   390  3.89  0.  0.
   391  3.90  0.  0.
   392  3.91  0.  0.
   393  3.92  0.  0.
   394  3.93  0.  0.
   395  3.94  0.  0.
   396  3.95  0.  0.
   397  3.96  0.  0.
   398  3.97  0.  0.
   399  3.98  0.  0.
   400  3.99  0.  0.
   401  4.00  0.  0.
   402  4.01  0.  0.
   403  4.02  0.  0.
   404  4.03  0.  0.
   405  4.04  0.  0.
   406  4.05  0.  0.
   407  4.06  0.  0.
   408  4.07  0.  0.
   409  4.08  0.  0.
   410  4.09  0.  0.
   411  4.10  0.  0.
   412  4.11  0.  0.
   413  4.12  0.  0.
   414  4.13  0.  0.
   415  4.14  0.  0.
   416  4.15  0.  0.
   417  4.16  0.  0.
   418  4.17  0.  0.
   419  4.18  0.  0.
   420  4.19  0.  0.
   421  4.20  0.  0.
   422  4.21  0.  0.
   423  4.22  0.  0.
   424  4.23  0.  0.
   425  4.24  0.  0.
   426  4.25  0.  0.
   427  4.26  0.  0.
   428  4.27  0.  0.
   429  4.28  0.  0.
   430  4.29  0.  0.
   431  4.30  0.  0.
   432  4.31  0.  0.
   433  4.32  0.  0.
   434  4.33  0.  0.
   435  4.34  0.  0.
   436  4.35  0.  0.
   437  4.36  0.  0.
   438  4.37  0.  0.
   439  4.38  0.  0.
   440  4.39  0.  0.
   441  4.40  0.  0.
   442  4.41  0.  0.
   443  4.42  0.  0.
   444  4.43  0.  0.
   445  4.44  0.  0.
   446  4.45  0.  0.
   447  4.46  0.  0.
   448  4.47  0.  0.
   449  4.48  0.  0.
   450  4.49  0.  0.
   451  4.50  0.  0.
   452  4.51  0.  0.
   453  4.52  0.  0.
   454  4.53  0.  0.
   455  4.54  0.  0.
   456  4.55  0.  0.
   457  4.56  0.  0.
   458  4.57  0.  0.
   459  4.58  0.  0.
   460  4.59  0.  0.
   461  4.60  0.  0.
   462  4.61  0.  0.
   463  4.62  0.  0.
   464  4.63  0.  0.
   465  4.64  0.  0.
   466  4.65  0.  0.
   467  4.66  0.  0.
   468  4.67  0.  0.
   469  4.68  0.  0.
   470  4.69  0.  0.
   471  4.70  0.  0.
   472  4.71  0.  0.
   473  4.72  0.  0.
   474  4.73  0.  0.
   475  4.74  0.  0.
   476  4.75  0.  0.
   477  4.76  0.  0.
   478  4.77  0.  0.
   479  4.78  0.  0.
   480  4.79  0.  0.
   481  4.80  0.  0.
   482  4.81  0.  0.
   483  4.82  0.  0.
   484  4.83  0.  0.
   485  4.84  0.  0.
   486  4.85  0.  0.
   487  4.86  0.  0.
   488  4.87  0.  0.
   489  4.88  0.  0.
   490  4.89  0.  0.
   491  4.90  0.  0.
   492  4.91  0.  0.
   493  4.92  0.  0.
   494  4.93  0.  0.
   495  4.94  0.  0.
   496  4.95  0.  0.
   497  4.96  0.  0.
   498  4.97  0.  0.
   499  4.98  0.  0.
   500  4.99  0.  0.
   501  5.00  0.  0.
   502  5.01  0.  0.
   503  5.02  0.  0.
   504  5.03  0.  0.
   505  5.04  0.  0.
   506  5.05  0.  0.
   507  5.06  0.  0.
   508  5.07  0.  0.
   509  5.08  0.  0.
   510  5.09  0.  0.
   511  5.10  0.  0.
   512  5.11  0.  0.
   513  5.12  0.  0.
   514  5.13  0.  0.
   515  5.14  0.  0.
   516  5.15  0.  0.
   517  5.16  0.  0.
   518  5.17  0.  0.
   519  5.18  0.  0.
   520  5.19  0.  0.
   521  5.20  0.  0.
   522  5.21  0.  0.
   523  5.22  0.  0.
   524  5.23  0.  0.
   525  5.24  0.  0.
   526  5.25  0.  0.
   527  5.26  0.  0.
   528  5.27  0.  0.
   529  5.28  0.  0.
   530  5.29  0.  0.
   531  5.30  0.  0.
   532  5.31  0.  0.
   533  5.32  0.  0.
   534  5.33  0.  0.
   535  5.34  0.  0.
   536  5.35  0.  0.
   537  5.36  0.  0.
   538  5.37  0.  0.
   539  5.38  0.  0.
   540  5.39  0.  0.
   541  5.40  0.  0.
   542  5.41  0.  0.
   543  5.42  0.  0.
   544  5.43  0.  0.
   545  5.44  0.  0.
   546  5.45  0.  0.
   547  5.46  0.  0.
   548  5.47  0.  0.
   549  5.48  0.  0.
   550  5.49  0.  0.
   551  5.50  0.  0.
   552  5.51  0.  0.
   553  5.52  0.  0.
   554  5.53  0.  0.
   555  5.54  0.  0.
   556  5.55  0.  0.
   557  5.56  0.  0.
   558  5.57  0.  0.
   559  5.58  0.  0.
   560  5.59  0.  0.
   561  5.60  0.  0.
   562  5.61  0.  0.
   563  5.62  0.  0.
   564  5.63  0.  0.
   565  5.64  0.  0.
   566  5.65  0.  0.
   567  5.66  0.  0.
   568  5.67  0.  0.
   569  5.68  0.  0.
   570  5.69  0.  0.
   571  5.70  0.  0.
   572  5.71  0.  0.
   573  5.72  0.  0.
   574  5.73  0.  0.
   575  5.74  0.  0.
   576  5.75  0.  0.
   577  5.76  0.  0.
   578  5.77  0.  0.
   579  5.78  0.  0.
   580  5.79  0.  0.
   581  5.80  0.  0.
   582  5.81  0.  0.
   583  5.82  0.  0.
   584  5.83  0.  0.
   585  5.84  0.  0.
   586  5.85  0.  0.
   587  5.86  0.  0.
   588  5.87  0.  0.
   589  5.88  0.  0.
   590  5.89  0.  0.
   591  5.90  0.  0.
   592  5.91  0.  0.
   593  5.92  0.  0.
   594  5.93  0.  0.
   595  5.94  0.  0.
   596  5.95  0.  0.
   597  5.96  0.  0.
   598  5.97  0.  0.
   599  5.98  0.  0.
   600  5.99  0.  0.
   1                         5.0103346874270E+00  6.8846144107839E-01
     1  0.0000000000000E+00  4.2924397022914E-10 -9.8688787350532E-10
     2  1.0000000000000E-02  4.6953432999106E-04 -4.0764871019812E-04
     3  2.0000000000000E-02  1.8763849587680E-03 -1.6272714991793E-03
     4  3.0000000000000E-02  4.2153134416155E-03 -3.6489396973670E-03
     5  4.0000000000000E-02  7.4776509289562E-03 -6.4562428242063E-03
     6  5.0000000000000E-02  1.1651390173923E-02 -1.0026492627629E-02
     7  6.0000000000000E-02  1.6721312693866E-02 -1.4331004937206E-02
     8  7.0000000000000E-02  2.2669149461381E-02 -1.9335455587426E-02
     9  8.0000000000000E-02  2.9473773071185E-02 -2.5000305680647E-02
    10  9.0000000000000E-02  3.7111418925556E-02 -3.1281290533156E-02
    11  1.0000000000000E-01  4.5555932608052E-02 -3.8129965794240E-02
    12  1.1000000000000E-01  5.4779040277570E-02 -4.5494303458220E-02
    13  1.2000000000000E-01  6.4750638616720E-02 -5.3319329813281E-02
    14  1.3000000000000E-01  7.5439100613823E-02 -6.1547796797237E-02
    15  1.4000000000000E-01  8.6811593249751E-02 -7.0120877766835E-02
    16  1.5000000000000E-01  9.8834403002102E-02 -7.8978878340118E-02
    17  1.6000000000000E-01  1.1147326497188E-01 -8.8061952745245E-02
    18  1.7000000000000E-01  1.2469369138348E-01 -9.7310816007726E-02
    19  1.8000000000000E-01  1.3846129520793E-01 -1.0666744233250E-01
    20  1.9000000000000E-01  1.5274210471295E-01 -1.1607574018821E-01
    21  2.0000000000000E-01  1.6750286484944E-01 -1.2548219487680E-01
    22  2.1000000000000E-01  1.8271132154362E-01 -1.3483646976911E-01
    23  2.2000000000000E-01  1.9833648517291E-01 -1.4409195790219E-01
    24  2.3000000000000E-01  2.1434886976160E-01 -1.5320627626009E-01
    25  2.4000000000000E-01  2.3072070473484E-01 -1.6214169579003E-01
    26  2.5000000000000E-01  2.4742611641360E-01 -1.7086550103093E-01
    27  2.6000000000000E-01  2.6444127681514E-01 -1.7935027414094E-01
    28  2.7000000000000E-01  2.8174451773786E-01 -1.8757409909491E-01
    29  2.8000000000000E-01  2.9931640855186E-01 -1.9552068286785E-01
    30  2.9000000000000E-01  3.1713979658161E-01 -2.0317939151465E-01
    31  3.0000000000000E-01  3.3519980944894E-01 -2.1054520018573E-01
    32  3.1000000000000E-01  3.5348381923746E-01 -2.1761855726805E-01
    33  3.2000000000000E-01  3.7198136883726E-01 -2.2440516399723E-01
    34  3.3000000000000E-01  3.9068406132551E-01 -2.3091567203463E-01
    35  3.4000000000000E-01  4.0958541372768E-01 -2.3716530262738E-01
    36  3.5000000000000E-01  4.2868067697993E-01 -2.4317339205698E-01
    37  3.6000000000000E-01  4.4796662436939E-01 -2.4896286911666E-01
    38  3.7000000000000E-01  4.6744131116022E-01 -2.5455967132767E-01
    39  3.8000000000000E-01  4.8710380851337E-01 -2.5999210749601E-01
    40  3.9000000000000E-01  5.0695391517215E-01 -2.6529017501173E-01
    41  4.0000000000000E-01  5.2699185070966E-01 -2.7048484099288E-01
    42  4.1000000000000E-01  5.4721793441185E-01 -2.7560729696425E-01
    43  4.2000000000000E-01  5.6763225410030E-01 -2.8068819722999E-01
    44  4.3000000000000E-01  5.8823432937601E-01 -2.8575689144083E-01
    45  4.4000000000000E-01  6.0902277388831E-01 -2.9084066206677E-01
    46  4.5000000000000E-01  6.2999496129961E-01 -2.9596397755884E-01
    47  4.6000000000000E-01  6.5114669962472E-01 -3.0114777191906E-01
    48  4.7000000000000E-01  6.7247191857343E-01 -3.0640876119284E-01
    49  4.8000000000000E-01  6.9396237441661E-01 -3.1175880705619E-01
    50  4.9000000000000E-01  7.1560737672984E-01 -3.1720433719265E-01
    51  5.0000000000000E-01  7.3739354114651E-01 -3.2274583154689E-01
    52  5.1000000000000E-01  7.5930457197647E-01 -3.2837738281007E-01
    53  5.2000000000000E-01  7.8132107821943E-01 -3.3408633864350E-01
    54  5.3000000000000E-01  8.0342042612833E-01 -3.3985303219167E-01
    55  5.4000000000000E-01  8.2557663106051E-01 -3.4565060638460E-01
    56  5.5000000000000E-01  8.4776029089875E-01 -3.5144493639348E-01
    57  5.6000000000000E-01  8.6993856283536E-01 -3.5719465339798E-01
    58  5.7000000000000E-01  8.9207518479587E-01 -3.6285127156086E-01
    59  5.8000000000000E-01  9.1413054224093E-01 -3.6835941880197E-01
    60  5.9000000000000E-01  9.3606178053174E-01 -3.7365717063509E-01
    61  6.0000000000000E-01  9.5782296248280E-01 -3.7867648499303E-01
    62  6.1000000000000E-01  9.7936527016224E-01 -3.8334373463664E-01
    63  6.2000000000000E-01  1.0006372494420E+00 -3.8758033243765E-01
    64  6.3000000000000E-01  1.0215850952533E+00 -3.9130344356099E-01
    65  6.4000000000000E-01  1.0421529749765E+00 -3.9442677736488E-01
    66  6.5000000000000E-01  1.0622833868907E+00 -3.9686145070355E-01
    67  6.6000000000000E-01  1.0819175501400E+00 -3.9851691327136E-01
    68  6.7000000000000E-01  1.1009958222393E+00 -3.9930192468423E-01
    69  6.8000000000000E-01  1.1194581397547E+00 -3.9912557216618E-01
    70  6.9000000000000E-01  1.1372444774521E+00 -3.9789831700849E-01
    71  7.0000000000000E-01  1.1542953209217E+00 -3.9553305740566E-01
    72  7.1000000000000E-01  1.1705521474548E+00 -3.9194619485578E-01
    73  7.2000000000000E-01  1.1859579097822E+00 -3.8705869104974E-01
    74  7.3000000000000E-01  1.2004575171748E+00 -3.8079710206861E-01