Cs    ONCVPSP-4.0.1  r_core=   2.34531   2.33133   2.19595   2.50483
     55.0000      9.0000      230118    zatom,zion,pspd
     8       2   3     4   600     0    pspcod,pspxc,lmax,lloc,mmax,r2well
  5.99000000  5.00000000  0.00000000    rchrg fchrg qchrg
     2     2     2     2     0    nproj
     1     1           extension_switch
   0                         5.2898378797449E+00  3.9186328031817E-01
     1  0.0000000000000E+00  1.2600837040466E-11 -5.3011359191224E-11
     2  1.0000000000000E-02  3.0486632202790E-02 -9.1068947477754E-03
     3  2.0000000000000E-02  6.0960362794064E-02 -1.8221752750151E-02
     4  3.0000000000000E-02  9.1408247992542E-02 -2.7352341039427E-02
     5  4.0000000000000E-02  1.2181726009103E-01 -3.6506035889983E-02
     6  5.0000000000000E-02  1.5217424652427E-01 -4.5689631642502E-02
     7  6.0000000000000E-02  1.8246589016488E-01 -5.4909154534281E-02
     8  7.0000000000000E-02  2.1267867124167E-01 -6.4169683141776E-02
     9  8.0000000000000E-02  2.4279883126249E-01 -7.3475176988495E-02
    10  9.0000000000000E-02  2.7281233930758E-01 -8.2828314805943E-02
    11  1.0000000000000E-01  3.0270486104170E-01 -9.2230343857916E-02
    12  1.1000000000000E-01  3.3246173077142E-01 -1.0168094164963E-01
    13  1.2000000000000E-01  3.6206792685106E-01 -1.1117809124397E-01
    14  1.3000000000000E-01  3.9150805071410E-01 -1.2071797129766E-01
    15  1.4000000000000E-01  4.2076630977912E-01 -1.3029486181224E-01
    16  1.5000000000000E-01  4.4982650444896E-01 -1.3990106646819E-01
    17  1.6000000000000E-01  4.7867201939011E-01 -1.4952685227739E-01
    18  1.7000000000000E-01  5.0728581924590E-01 -1.5916040714963E-01
    19  1.8000000000000E-01  5.3565044890257E-01 -1.6878781582476E-01
    20  1.9000000000000E-01  5.6374803839190E-01 -1.7839305447403E-01
    21  2.0000000000000E-01  5.9156031247781E-01 -1.8795800412344E-01
    22  2.1000000000000E-01  6.1906860493794E-01 -1.9746248290016E-01
    23  2.2000000000000E-01  6.4625387751441E-01 -2.0688429695073E-01
    24  2.3000000000000E-01  6.7309674347166E-01 -2.1619930972868E-01
    25  2.4000000000000E-01  6.9957749566304E-01 -2.2538152920034E-01
    26  2.5000000000000E-01  7.2567613897273E-01 -2.3440321237184E-01
    27  2.6000000000000E-01  7.5137242696505E-01 -2.4323498639999E-01
    28  2.7000000000000E-01  7.7664590254040E-01 -2.5184598541369E-01
    29  2.8000000000000E-01  8.0147594236540E-01 -2.6020400204496E-01
    30  2.9000000000000E-01  8.2584180481512E-01 -2.6827565254748E-01
    31  3.0000000000000E-01  8.4972268113758E-01 -2.7602655426901E-01
    32  3.1000000000000E-01  8.7309774952517E-01 -2.8342151414241E-01
    33  3.2000000000000E-01  8.9594623175434E-01 -2.9042472676748E-01
    34  3.3000000000000E-01  9.1824745203472E-01 -2.9699998057681E-01
    35  3.4000000000000E-01  9.3998089769075E-01 -3.0311087050990E-01
    36  3.5000000000000E-01  9.6112628128412E-01 -3.0872101556411E-01
    37  3.6000000000000E-01  9.8166360377352E-01 -3.1379427954885E-01
    38  3.7000000000000E-01  1.0015732182993E+00 -3.1829499333928E-01
    39  3.8000000000000E-01  1.0208358941748E+00 -3.2218817691097E-01
    40  3.9000000000000E-01  1.0394328806649E+00 -3.2543975943441E-01
    41  4.0000000000000E-01  1.0573459701306E+00 -3.2801679572060E-01
    42  4.1000000000000E-01  1.0745575601261E+00 -3.2988767733452E-01
    43  4.2000000000000E-01  1.0910507140381E+00 -3.3102233673267E-01
    44  4.3000000000000E-01  1.1068092198716E+00 -3.3139244283359E-01
    45  4.4000000000000E-01  1.1218176467955E+00 -3.3097158649595E-01
    46  4.5000000000000E-01  1.1360613990823E+00 -3.2973545445646E-01
    47  4.6000000000000E-01  1.1495267670911E+00 -3.2766199037058E-01
    48  4.7000000000000E-01  1.1622009749682E+00 -3.2473154169919E-01
    49  4.8000000000000E-01  1.1740722247625E+00 -3.2092699129668E-01
    50  4.9000000000000E-01  1.1851297366803E+00 -3.1623387267618E-01
    51  5.0000000000000E-01  1.1953637852311E+00 -3.1064046805823E-01
    52  5.1000000000000E-01  1.2047657310505E+00 -3.0413788844497E-01
    53  5.2000000000000E-01  1.2133280482143E+00 -2.9672013510718E-01
    54  5.3000000000000E-01  1.2210443468941E+00 -2.8838414201892E-01
    55  5.4000000000000E-01  1.2279093912402E+00 -2.7912979892905E-01
    56  5.5000000000000E-01  1.2339191124095E+00 -2.6895995491353E-01
    57  5.6000000000000E-01  1.2390706166979E+00 -2.5788040241170E-01
    58  5.7000000000000E-01  1.2433621887672E+00 -2.4589984190650E-01
    59  5.8000000000000E-01  1.2467932899985E+00 -2.3302982756694E-01
    60  5.9000000000000E-01  1.2493645520353E+00 -2.1928469432516E-01
    61  6.0000000000000E-01  1.2510777656183E+00 -2.0468146701349E-01
    62  6.1000000000000E-01  1.2519358648481E+00 -1.8923975233248E-01
    63  6.2000000000000E-01  1.2519429070428E+00 -1.7298161456325E-01
    64  6.3000000000000E-01  1.2511040483940E+00 -1.5593143607078E-01
    65  6.4000000000000E-01  1.2494255156502E+00 -1.3811576377091E-01
    66  6.5000000000000E-01  1.2469145740883E+00 -1.1956314285074E-01
    67  6.6000000000000E-01  1.2435794920589E+00 -1.0030393913801E-01
    68  6.7000000000000E-01  1.2394295024143E+00 -8.0370151610572E-02
    69  6.8000000000000E-01  1.2344747611502E+00 -5.9795216620344E-02
    70  6.9000000000000E-01  1.2287263036096E+00 -3.8613805476309E-02
    71  7.0000000000000E-01  1.2221959986141E+00 -1.6861617088594E-02
    72  7.1000000000000E-01  1.2148965008978E+00  5.4248325815009E-03
    73  7.2000000000000E-01  1.2068412022319E+00  2.8208422491740E-02
    74  7.3000000000000E-01  1.1980441816294E+00  5.1451638121521E-02
    75  7.4000000000000E-01  1.1885201550264E+00  7.5116780919730E-02
    76  7.5000000000000E-01  1.1782844248332E+00  9.9166173826539E-02
    77  7.6000000000000E-01  1.1673528297446E+00  1.2356236112844E-01
    78  7.7000000000000E-01  1.1557416951925E+00  1.4826830095132E-01
    79  7.8000000000000E-01  1.1434677848122E+00  1.7324754875664E-01
    80  7.9000000000000E-01  1.1305482532808E+00  1.9846443027897E-01
    81  8.0000000000000E-01  1.1170006008693E+00  2.2388420243225E-01
    82  8.1000000000000E-01  1.1028426300287E+00  2.4947320081114E-01
    83  8.2000000000000E-01  1.0880924043097E+00  2.7519897252801E-01
    84  8.3000000000000E-01  1.0727682098901E+00  3.0103039324962E-01
    85  8.4000000000000E-01  1.0568885199546E+00  3.2693776743276E-01
    86  8.5000000000000E-01  1.0404719621435E+00  3.5289291090150E-01
    87  8.6000000000000E-01  1.0235372892562E+00  3.7886921506229E-01
    88  8.7000000000000E-01  1.0061033533571E+00  4.0484169221139E-01
    89  8.8000000000000E-01  9.8818908340372E-01  4.3078700155585E-01
    90  8.9000000000000E-01  9.6981346647379E-01  4.5668345573797E-01
    91  9.0000000000000E-01  9.5099553263645E-01  4.8251100782762E-01
    92  9.1000000000000E-01  9.3175434347227E-01  5.0825121892049E-01
    93  9.2000000000000E-01  9.1210898421078E-01  5.3388720665656E-01
    94  9.3000000000000E-01  8.9207855941589E-01  5.5940357514716E-01
    95  9.4000000000000E-01  8.7168219211303E-01  5.8478632697014E-01
    96  9.5000000000000E-01  8.5093902621530E-01  6.1002275806108E-01
    97  9.6000000000000E-01  8.2986823207084E-01  6.3510133649059E-01
    98  9.7000000000000E-01  8.0848901491962E-01  6.6001156627314E-01
    99  9.8000000000000E-01  7.8682062601577E-01  6.8474383750074E-01
   100  9.9000000000000E-01  7.6488237614149E-01  7.0928926423239E-01
   101  1.0000000000000E+00  7.4269365121017E-01  7.3363951169809E-01
   102  1.0100000000000E+00  7.2027392963143E-01  7.5778661449159E-01
   103  1.0200000000000E+00  6.9764280108752E-01  7.8172278752865E-01
   104  1.0300000000000E+00  6.7481998635116E-01  8.0544023163709E-01
   105  1.0400000000000E+00  6.5182535775789E-01  8.2893093571839E-01
   106  1.0500000000000E+00  6.2867895993302E-01  8.5218647747973E-01
   107  1.0600000000000E+00  6.0540103036329E-01  8.7519782477781E-01
   108  1.0700000000000E+00  5.8201201939705E-01  8.9795513964153E-01
   109  1.0800000000000E+00  5.5853260925448E-01  9.2044758704982E-01
   110  1.0900000000000E+00  5.3498373163041E-01  9.4266315053150E-01
   111  1.1000000000000E+00  5.1138658347739E-01  9.6458845662923E-01
   112  1.1100000000000E+00  4.8776264056558E-01  9.8620861022475E-01
   113  1.1200000000000E+00  4.6413366842846E-01  1.0075070426632E+00
   114  1.1300000000000E+00  4.4052173031982E-01  1.0284653745349E+00
   115  1.1400000000000E+00  4.1694919182739E-01  1.0490632948802E+00
   116  1.1500000000000E+00  3.9343872181190E-01  1.0692784584709E+00
   117  1.1600000000000E+00  3.7001328936713E-01  1.0890864026962E+00
   118  1.1700000000000E+00  3.4669615652653E-01  1.1084604854423E+00
   119  1.1800000000000E+00  3.2351086647505E-01  1.1273718451977E+00
   120  1.1900000000000E+00  3.0048122706010E-01  1.1457893844530E+00
   121  1.2000000000000E+00  2.7763128943445E-01  1.1636797772827E+00
   122  1.2100000000000E+00  2.5498532170329E-01  1.1810075018124E+00
   123  1.2200000000000E+00  2.3256777749097E-01  1.1977348980743E+00
   124  1.2300000000000E+00  2.1040325938598E-01  1.2138222515525E+00
   125  1.2400000000000E+00  1.8851647726824E-01  1.2292279025092E+00
   126  1.2500000000000E+00  1.6693220156871E-01  1.2439083809693E+00
   127  1.2600000000000E+00  1.4567521155776E-01  1.2578185670243E+00
   128  1.2700000000000E+00  1.2477023880553E-01  1.2709118759002E+00
   129  1.2800000000000E+00  1.0424190600396E-01  1.2831404670177E+00
   130  1.2900000000000E+00  8.4114661386056E-02  1.2944554760590E+00
   131  1.3000000000000E+00  6.4412709022861E-02  1.3048072688479E+00
   132  1.3100000000000E+00  4.5159935322214E-02  1.3141457156452E+00
   133  1.3200000000000E+00  2.6379832095243E-02  1.3224204842679E+00
   134  1.3300000000000E+00  8.0954165962700E-03  1.3295813502532E+00
   135  1.3400000000000E+00 -9.6708510207123E-03  1.3355785221142E+00
   136  1.3500000000000E+00 -2.6897152351409E-02  1.3403629795727E+00
   137  1.3600000000000E+00 -4.3562396987075E-02  1.3438868225027E+00
   138  1.3700000000000E+00 -5.9646309819587E-02  1.3461036281898E+00
   139  1.3800000000000E+00 -7.5129518843639E-02  1.3469688143888E+00
   140  1.3900000000000E+00 -8.9993642873646E-02  1.3464400055685E+00
   141  1.4000000000000E+00 -1.0422137857616E-01  1.3444773996471E+00
   142  1.4100000000000E+00 -1.1779658620646E-01  1.3410441324633E+00
   143  1.4200000000000E+00 -1.3070437343019E-01  1.3361066371853E+00
   144  1.4300000000000E+00 -1.4293117660786E-01  1.3296349958407E+00
   145  1.4400000000000E+00 -1.5446483892117E-01  1.3216032801505E+00
   146  1.4500000000000E+00 -1.6529468472680E-01  1.3119898788722E+00
   147  1.4600000000000E+00 -1.7541158953386E-01  1.3007778089020E+00
   148  1.4700000000000E+00 -1.8480804501734E-01  1.2879550074498E+00
   149  1.4800000000000E+00 -1.9347821849989E-01  1.2735146026887E+00
   150  1.4900000000000E+00 -2.0141800635967E-01  1.2574551603858E+00
   151  1.5000000000000E+00 -2.0862508085129E-01  1.2397809041525E+00
   152  1.5100000000000E+00 -2.1509892986073E-01  1.2205019070952E+00
   153  1.5200000000000E+00 -2.2084088915317E-01  1.1996342528173E+00
   154  1.5300000000000E+00 -2.2585416671437E-01  1.1772001639036E+00
   155  1.5400000000000E+00 -2.3014385883186E-01  1.1532280962215E+00
   156  1.5500000000000E+00 -2.3371695761090E-01  1.1277527975877E+00
   157  1.5600000000000E+00 -2.3658234967218E-01  1.1008153295758E+00
   158  1.5700000000000E+00 -2.3875080583246E-01  1.0724630514859E+00
   159  1.5800000000000E+00 -2.4023496162661E-01  1.0427495657474E+00
   160  1.5900000000000E+00 -2.4104928858777E-01  1.0117346242848E+00
   161  1.6000000000000E+00 -2.4121005626290E-01  9.7948399564768E-01
   162  1.6100000000000E+00 -2.4073528500225E-01  9.4606929297726E-01
   163  1.6200000000000E+00 -2.3964468962303E-01  9.1156776315652E-01
   164  1.6300000000000E+00 -2.3795961410983E-01  8.7606203776985E-01
   165  1.6400000000000E+00 -2.3570295757622E-01  8.3963984677297E-01
   166  1.6500000000000E+00 -2.3289909177285E-01  8.0239369604669E-01
   167  1.6600000000000E+00 -2.2957377048741E-01  7.6442051027586E-01
   168  1.6700000000000E+00 -2.2575403124017E-01  7.2582124285591E-01
   169  1.6800000000000E+00 -2.2146808973468E-01  6.8670045477984E-01
   170  1.6900000000000E+00 -2.1674522757716E-01  6.4716586469971E-01
   171  1.7000000000000E+00 -2.1161567382863E-01  6.0732787258359E-01
   172  1.7100000000000E+00 -2.0611048100121E-01  5.6729905960130E-01
   173  1.7200000000000E+00 -2.0026139615358E-01  5.2719366706857E-01
   174  1.7300000000000E+00 -1.9410072778021E-01  4.8712705745705E-01
   175  1.7400000000000E+00 -1.8766120922394E-01  4.4721516063592E-01
   176  1.7500000000000E+00 -1.8097585937199E-01  4.0757390864774E-01
   177  1.7600000000000E+00 -1.7407784142073E-01  3.6831866243718E-01
   178  1.7700000000000E+00 -1.6700032051477E-01  3.2956363404244E-01
   179  1.7800000000000E+00 -1.5977632108078E-01  2.9142130782735E-01
   180  1.7900000000000E+00 -1.5243858468529E-01  2.5400186437498E-01
   181  1.8000000000000E+00 -1.4501942924956E-01  2.1741261068152E-01
   182  1.8100000000000E+00 -1.3755061045200E-01  1.8175742028057E-01
   183  1.8200000000000E+00 -1.3006318614064E-01  1.4713618689428E-01
   184  1.8300000000000E+00 -1.2258738456401E-01  1.1364429514779E-01
   185  1.8400000000000E+00 -1.1515247720935E-01  8.1372111797658E-02
   186  1.8500000000000E+00 -1.0778665701145E-01  5.0404500814202E-02
   187  1.8600000000000E+00 -1.0051692266447E-01  2.0820365521933E-02
   188  1.8700000000000E+00 -9.3368969733005E-02 -7.3077791573413E-03
   189  1.8800000000000E+00 -8.6367089217014E-02 -3.3914201496557E-02
   190  1.8900000000000E+00 -7.9534074179023E-02 -5.8940312132511E-02
   191  1.9000000000000E+00 -7.2891134990552E-02 -8.2334985181383E-02
   192  1.9100000000000E+00 -6.6457823700621E-02 -1.0405483910876E-01
   193  1.9200000000000E+00 -6.0251967968825E-02 -1.2406447542927E-01
   194  1.9300000000000E+00 -5.4289614943308E-02 -1.4233667358596E-01
   195  1.9400000000000E+00 -4.8584985398243E-02 -1.5885254065053E-01
   196  1.9500000000000E+00 -4.3150438376825E-02 -1.7360161478914E-01
   197  1.9600000000000E+00 -3.7996446515186E-02 -1.8658192175139E-01
   198  1.9700000000000E+00 -3.3131582150510E-02 -1.9779998395957E-01
   199  1.9800000000000E+00 -2.8562514241455E-02 -2.0727078210854E-01
   200  1.9900000000000E+00 -2.4294016058850E-02 -2.1501766949726E-01
   201  2.0000000000000E+00 -2.0328983524708E-02 -2.2107223966746E-01
   202  2.0100000000000E+00 -1.6668464007529E-02 -2.2547414823556E-01
   203  2.0200000000000E+00 -1.3311695307054E-02 -2.2827089013548E-01
   204  2.0300000000000E+00 -1.0256154490386E-02 -2.2951753380607E-01
   205  2.0400000000000E+00 -7.4976161697971E-03 -2.2927641417387E-01
   206  2.0500000000000E+00 -5.0302197489814E-03 -2.2761678656412E-01
   207  2.0600000000000E+00 -2.8465450952138E-03 -2.2461444397968E-01
   208  2.0700000000000E+00 -9.3769603635881E-04 -2.2035130044685E-01
   209  2.0800000000000E+00  7.0660897611862E-04 -2.1491494338319E-01
   210  2.0900000000000E+00  2.0979397509312E-03 -2.0839815818114E-01
   211  2.1000000000000E+00  3.2490515479738E-03 -2.0089842841188E-01
   212  2.1100000000000E+00  4.1737773802402E-03 -1.9251741524550E-01
   213  2.1200000000000E+00  4.8869162708536E-03 -1.8336041986197E-01
   214  2.1300000000000E+00  5.4041183395153E-03 -1.7353583276059E-01
   215  2.1400000000000E+00  5.7417676209562E-03 -1.6315457399951E-01
   216  2.1500000000000E+00  5.9168636912760E-03 -1.5232952932881E-01
   217  2.1600000000000E+00  5.9469026434824E-03 -1.4117498417220E-01
   218  2.1700000000000E+00  5.8497566760971E-03 -1.2980605076971E-01
   219  2.1800000000000E+00  5.6435602033382E-03 -1.1833812997914E-01
   220  2.1900000000000E+00  5.3466024692163E-03 -1.0688640547271E-01
   221  2.2000000000000E+00  4.9769854304542E-03 -9.5564069970151E-02
   222  2.2100000000000E+00  4.5522839082306E-03 -8.4480505558950E-02
   223  2.2200000000000E+00  4.0892407979871E-03 -7.3739826563598E-02
   224  2.2300000000000E+00  3.6035668695673E-03 -6.3440137007237E-02
   225  2.2400000000000E+00  3.1089891234207E-03 -5.3670122005232E-02
   226  2.2500000000000E+00  2.6185949324320E-03 -4.4513423849707E-02
   227  2.2600000000000E+00  2.1453612570750E-03 -3.6050338915475E-02
   228  2.2700000000000E+00  1.7006664886799E-03 -2.8352786310325E-02
   229  2.2800000000000E+00  1.2943973277059E-03 -2.1484542809476E-02
   230  2.2900000000000E+00  9.3484349378921E-04 -1.5500793782327E-02
   231  2.3000000000000E+00  6.2862890701544E-04 -1.0447820297282E-02
   232  2.3100000000000E+00  3.8077237921000E-04 -6.3649515186514E-03
   233  2.3200000000000E+00  1.9364925480469E-04 -3.2665344487773E-03
   234  2.3300000000000E+00  6.9780965271166E-05 -1.1921968435159E-03
   235  2.3400000000000E+00  1.1059979113485E-05 -1.9244146894699E-04
   236  2.3500000000000E+00 -2.7780625630201E-06  4.8558253978555E-05
   237  2.3600000000000E+00  1.5428745228246E-07 -2.6701298887662E-06
   238  2.37  0. -0.
   239  2.38 -0.  0.
   240  2.39  0. -0.
   241  2.40  0. -0.
   242  2.41  0.  0.
   243  2.42  0.  0.
   244  2.43  0.  0.
   245  2.44  0.  0.
   246  2.45  0.  0.
   247  2.46  0.  0.
   248  2.47  0.  0.
   249  2.48  0.  0.
   250  2.49  0.  0.
   251  2.50  0.  0.
   252  2.51  0.  0.
   253  2.52  0.  0.
   254  2.53  0.  0.
   255  2.54  0.  0.
   256  2.55  0.  0.
   257  2.56  0.  0.
   258  2.57  0.  0.
   259  2.58  0.  0.
   260  2.59  0.  0.
   261  2.60  0.  0.
   262  2.61  0.  0.
   263  2.62  0.  0.
   264  2.63  0.  0.
   265  2.64  0.  0.
   266  2.65  0.  0.
   267  2.66  0.  0.
   268  2.67  0.  0.
   269  2.68  0.  0.
   270  2.69  0.  0.
   271  2.70  0.  0.
   272  2.71  0.  0.
   273  2.72  0.  0.
   274  2.73  0.  0.
   275  2.74  0.  0.
   276  2.75  0.  0.
   277  2.76  0.  0.
   278  2.77  0.  0.
   279  2.78  0.  0.
   280  2.79  0.  0.
   281  2.80  0.  0.
   282  2.81  0.  0.
   283  2.82  0.  0.
   284  2.83  0.  0.
   285  2.84  0.  0.
   286  2.85  0.  0.
   287  2.86  0.  0.
   288  2.87  0.  0.
   289  2.88  0.  0.
   290  2.89  0.  0.
   291  2.90  0.  0.
   292  2.91  0.  0.
   293  2.92  0.  0.
   294  2.93  0.  0.
   295  2.94  0.  0.
   296  2.95  0.  0.
   297  2.96  0.  0.
   298  2.97  0.  0.
   299  2.98  0.  0.
   300  2.99  0.  0.
   301  3.00  0.  0.
   302  3.01  0.  0.
   303  3.02  0.  0.
   304  3.03  0.  0.
   305  3.04  0.  0.
   306  3.05  0.  0.
   307  3.06  0.  0.
   308  3.07  0.  0.
   309  3.08  0.  0.
   310  3.09  0.  0.
   311  3.10  0.  0.
   312  3.11  0.  0.
   313  3.12  0.  0.
   314  3.13  0.  0.
   315  3.14  0.  0.
   316  3.15  0.  0.
   317  3.16  0.  0.
   318  3.17  0.  0.
   319  3.18  0.  0.
   320  3.19  0.  0.
   321  3.20  0.  0.
   322  3.21  0.  0.
   323  3.22  0.  0.
   324  3.23  0.  0.
   325  3.24  0.  0.
   326  3.25  0.  0.
   327  3.26  0.  0.
   328  3.27  0.  0.
   329  3.28  0.  0.
   330  3.29  0.  0.
   331  3.30  0.  0.
   332  3.31  0.  0.
   333  3.32  0.  0.
   334  3.33  0.  0.
   335  3.34  0.  0.
   336  3.35  0.  0.
   337  3.36  0.  0.
   338  3.37  0.  0.
   339  3.38  0.  0.
   340  3.39  0.  0.
   341  3.40  0.  0.
   342  3.41  0.  0.
   343  3.42  0.  0.
   344  3.43  0.  0.
   345  3.44  0.  0.
   346  3.45  0.  0.
   347  3.46  0.  0.
   348  3.47  0.  0.
   349  3.48  0.  0.
   350  3.49  0.  0.
   351  3.50  0.  0.
   352  3.51  0.  0.
   353  3.52  0.  0.
   354  3.53  0.  0.
   355  3.54  0.  0.
   356  3.55  0.  0.
   357  3.56  0.  0.
   358  3.57  0.  0.
   359  3.58  0.  0.
   360  3.59  0.  0.
   361  3.60  0.  0.
   362  3.61  0.  0.
   363  3.62  0.  0.
   364  3.63  0.  0.
   365  3.64  0.  0.
   366  3.65  0.  0.
   367  3.66  0.  0.
   368  3.67  0.  0.
   369  3.68  0.  0.
   370  3.69  0.  0.
   371  3.70  0.  0.
   372  3.71  0.  0.
   373  3.72  0.  0.
   374  3.73  0.  0.
   375  3.74  0.  0.
   376  3.75  0.  0.
   377  3.76  0.  0.
   378  3.77  0.  0.
   379  3.78  0.  0.
   380  3.79  0.  0.
   381  3.80  0.  0.
   382  3.81  0.  0.
   383  3.82  0.  0.
   384  3.83  0.  0.
   385  3.84  0.  0.
   386  3.85  0.  0.
   387  3.86  0.  0.
   388  3.87  0.  0.
   389  3.88  0.  0.
   390  3.89  0.  0.
   391  3.90  0.  0.
   392  3.91  0.  0.
   393  3.92  0.  0.
   394  3.93  0.  0.
   395  3.94  0.  0.
   396  3.95  0.  0.
   397  3.96  0.  0.
   398  3.97  0.  0.
   399  3.98  0.  0.
   400  3.99  0.  0.
   401  4.00  0.  0.
   402  4.01  0.  0.
   403  4.02  0.  0.
   404  4.03  0.  0.
   405  4.04  0.  0.
   406  4.05  0.  0.
   407  4.06  0.  0.
   408  4.07  0.  0.
   409  4.08  0.  0.
   410  4.09  0.  0.
   411  4.10  0.  0.
   412  4.11  0.  0.
   413  4.12  0.  0.
   414  4.13  0.  0.
   415  4.14  0.  0.
   416  4.15  0.  0.
   417  4.16  0.  0.
   418  4.17  0.  0.
   419  4.18  0.  0.
   420  4.19  0.  0.
   421  4.20  0.  0.
   422  4.21  0.  0.
   423  4.22  0.  0.
   424  4.23  0.  0.
   425  4.24  0.  0.
   426  4.25  0.  0.
   427  4.26  0.  0.
   428  4.27  0.  0.
   429  4.28  0.  0.
   430  4.29  0.  0.
   431  4.30  0.  0.
   432  4.31  0.  0.
   433  4.32  0.  0.
   434  4.33  0.  0.
   435  4.34  0.  0.
   436  4.35  0.  0.
   437  4.36  0.  0.
   438  4.37  0.  0.
   439  4.38  0.  0.
   440  4.39  0.  0.
   441  4.40  0.  0.
   442  4.41  0.  0.
   443  4.42  0.  0.
   444  4.43  0.  0.
   445  4.44  0.  0.
   446  4.45  0.  0.
   447  4.46  0.  0.
   448  4.47  0.  0.
   449  4.48  0.  0.
   450  4.49  0.  0.
   451  4.50  0.  0.
   452  4.51  0.  0.
   453  4.52  0.  0.
   454  4.53  0.  0.
   455  4.54  0.  0.
   456  4.55  0.  0.
   457  4.56  0.  0.
   458  4.57  0.  0.
   459  4.58  0.  0.
   460  4.59  0.  0.
   461  4.60  0.  0.
   462  4.61  0.  0.
   463  4.62  0.  0.
   464  4.63  0.  0.
   465  4.64  0.  0.
   466  4.65  0.  0.
   467  4.66  0.  0.
   468  4.67  0.  0.
   469  4.68  0.  0.
   470  4.69  0.  0.
   471  4.70  0.  0.
   472  4.71  0.  0.
   473  4.72  0.  0.
   474  4.73  0.  0.
   475  4.74  0.  0.
   476  4.75  0.  0.
   477  4.76  0.  0.
   478  4.77  0.  0.
   479  4.78  0.  0.
   480  4.79  0.  0.
   481  4.80  0.  0.
   482  4.81  0.  0.
   483  4.82  0.  0.
   484  4.83  0.  0.
   485  4.84  0.  0.
   486  4.85  0.  0.
   487  4.86  0.  0.
   488  4.87  0.  0.
   489  4.88  0.  0.
   490  4.89  0.  0.
   491  4.90  0.  0.
   492  4.91  0.  0.
   493  4.92  0.  0.
   494  4.93  0.  0.
   495  4.94  0.  0.
   496  4.95  0.  0.
   497  4.96  0.  0.
   498  4.97  0.  0.
   499  4.98  0.  0.
   500  4.99  0.  0.
   501  5.00  0.  0.
   502  5.01  0.  0.
   503  5.02  0.  0.
   504  5.03  0.  0.
   505  5.04  0.  0.
   506  5.05  0.  0.
   507  5.06  0.  0.
   508  5.07  0.  0.
   509  5.08  0.  0.
   510  5.09  0.  0.
   511  5.10  0.  0.
   512  5.11  0.  0.
   513  5.12  0.  0.
   514  5.13  0.  0.
   515  5.14  0.  0.
   516  5.15  0.  0.
   517  5.16  0.  0.
   518  5.17  0.  0.
   519  5.18  0.  0.
   520  5.19  0.  0.
   521  5.20  0.  0.
   522  5.21  0.  0.
   523  5.22  0.  0.
   524  5.23  0.  0.
   525  5.24  0.  0.
   526  5.25  0.  0.
   527  5.26  0.  0.
   528  5.27  0.  0.
   529  5.28  0.  0.
   530  5.29  0.  0.
   531  5.30  0.  0.
   532  5.31  0.  0.
   533  5.32  0.  0.
   534  5.33  0.  0.
   535  5.34  0.  0.
   536  5.35  0.  0.
   537  5.36  0.  0.
   538  5.37  0.  0.
   539  5.38  0.  0.
   540  5.39  0.  0.
   541  5.40  0.  0.
   542  5.41  0.  0.
   543  5.42  0.  0.
   544  5.43  0.  0.
   545  5.44  0.  0.
   546  5.45  0.  0.
   547  5.46  0.  0.
   548  5.47  0.  0.
   549  5.48  0.  0.
   550  5.49  0.  0.
   551  5.50  0.  0.
   552  5.51  0.  0.
   553  5.52  0.  0.
   554  5.53  0.  0.
   555  5.54  0.  0.
   556  5.55  0.  0.
   557  5.56  0.  0.
   558  5.57  0.  0.
   559  5.58  0.  0.
   560  5.59  0.  0.
   561  5.60  0.  0.
   562  5.61  0.  0.
   563  5.62  0.  0.
   564  5.63  0.  0.
   565  5.64  0.  0.
   566  5.65  0.  0.
   567  5.66  0.  0.
   568  5.67  0.  0.
   569  5.68  0.  0.
   570  5.69  0.  0.
   571  5.70  0.  0.
   572  5.71  0.  0.
   573  5.72  0.  0.
   574  5.73  0.  0.
   575  5.74  0.  0.
   576  5.75  0.  0.
   577  5.76  0.  0.
   578  5.77  0.  0.
   579  5.78  0.  0.
   580  5.79  0.  0.
   581  5.80  0.  0.
   582  5.81  0.  0.
   583  5.82  0.  0.
   584  5.83  0.  0.
   585  5.84  0.  0.
   586  5.85  0.  0.
   587  5.86  0.  0.
   588  5.87  0.  0.
   589  5.88  0.  0.
   590  5.89  0.  0.
   591  5.90  0.  0.
   592  5.91  0.  0.
   593  5.92  0.  0.
   594  5.93  0.  0.
   595  5.94  0.  0.
   596  5.95  0.  0.
   597  5.96  0.  0.
   598  5.97  0.  0.
   599  5.98  0.  0.
   600  5.99  0.  0.
   1                         4.7457366851693E+00  5.4279559599671E-01
     1  0.0000000000000E+00  4.6847678514261E-11 -1.0441908449010E-10
     2  1.0000000000000E-02  6.2316183654244E-04 -3.5750084957045E-04
     3  2.0000000000000E-02  2.4912660817150E-03 -1.4283145794050E-03
     4  3.0000000000000E-02  5.6001735976875E-03 -3.2073834857301E-03
     5  4.0000000000000E-02  9.9430013152046E-03 -5.6863071833548E-03
     6  5.0000000000000E-02  1.5510145388050E-02 -8.8533860946478E-03
     7  6.0000000000000E-02  2.2289313437388E-02 -1.2693681950048E-02
     8  7.0000000000000E-02  3.0265565715406E-02 -1.7189094919117E-02
     9  8.0000000000000E-02  3.9421364970818E-02 -2.2318456886738E-02
    10  9.0000000000000E-02  4.9736634753340E-02 -2.8057640287711E-02
    11  1.0000000000000E-01  6.1188825850394E-02 -3.4379681815696E-02
    12  1.1000000000000E-01  7.3752990507581E-02 -4.1254920229777E-02
    13  1.2000000000000E-01  8.7401864044764E-02 -4.8651147394195E-02
    14  1.3000000000000E-01  1.0210595344255E-01 -5.6533771605059E-02
    15  1.4000000000000E-01  1.1783363243950E-01 -6.4865992182328E-02
    16  1.5000000000000E-01  1.3455124264906E-01 -7.3608984236760E-02
    17  1.6000000000000E-01  1.5222320017669E-01 -8.2722092459922E-02
    18  1.7000000000000E-01  1.7081210719271E-01 -9.2163032731942E-02
    19  1.8000000000000E-01  1.9027886789504E-01 -1.0188810029586E-01
    20  1.9000000000000E-01  2.1058280827766E-01 -1.1185238321023E-01
    21  2.0000000000000E-01  2.3168179910673E-01 -1.2200997976308E-01
    22  2.1000000000000E-01  2.5353238149566E-01 -1.3231421851038E-01
    23  2.2000000000000E-01  2.7608989446404E-01 -1.4271787959150E-01
    24  2.3000000000000E-01  2.9930860386223E-01 -1.5317341597221E-01
    25  2.4000000000000E-01  3.2314183204532E-01 -1.6363317327303E-01
    26  2.5000000000000E-01  3.4754208768440E-01 -1.7404960685716E-01
    27  2.6000000000000E-01  3.7246119511286E-01 -1.8437549487726E-01
    28  2.7000000000000E-01  3.9785042261746E-01 -1.9456414601424E-01
    29  2.8000000000000E-01  4.2366060910074E-01 -2.0456960068396E-01
    30  2.9000000000000E-01  4.4984228856115E-01 -2.1434682453807E-01
    31  3.0000000000000E-01  4.7634581186051E-01 -2.2385189314426E-01
    32  3.1000000000000E-01  5.0312146527536E-01 -2.3304216679694E-01
    33  3.2000000000000E-01  5.3011958535803E-01 -2.4187645448287E-01
    34  3.3000000000000E-01  5.5729066966622E-01 -2.5031516610603E-01
    35  3.4000000000000E-01  5.8458548295472E-01 -2.5832045216183E-01
    36  3.5000000000000E-01  6.1195515846072E-01 -2.6585633014204E-01
    37  3.6000000000000E-01  6.3935129395359E-01 -2.7288879704835E-01
    38  3.7000000000000E-01  6.6672604226180E-01 -2.7938592749227E-01
    39  3.8000000000000E-01  6.9403219603247E-01 -2.8531795696377E-01
    40  3.9000000000000E-01  7.2122326652355E-01 -2.9065734995700E-01
    41  4.0000000000000E-01  7.4825355627384E-01 -2.9537885275088E-01
    42  4.1000000000000E-01  7.7507822554195E-01 -2.9945953075199E-01
    43  4.2000000000000E-01  8.0165335245139E-01 -3.0287879041822E-01
    44  4.3000000000000E-01  8.2793598682538E-01 -3.0561838589189E-01
    45  4.4000000000000E-01  8.5388419774057E-01 -3.0766241058070E-01
    46  4.5000000000000E-01  8.7945711487405E-01 -3.0899727403255E-01
    47  4.6000000000000E-01  9.0461496376222E-01 -3.0961166455563E-01
    48  4.7000000000000E-01  9.2931909513290E-01 -3.0949649813711E-01
    49  4.8000000000000E-01  9.5353200851315E-01 -3.0864485431179E-01
    50  4.9000000000000E-01  9.7721737035474E-01 -3.0705189972561E-01
    51  5.0000000000000E-01  1.0003400269562E+00 -3.0471480022681E-01
    52  5.1000000000000E-01  1.0228660124948E+00 -3.0163262239953E-01
    53  5.2000000000000E-01  1.0447625525145E+00 -2.9780622553019E-01
    54  5.3000000000000E-01  1.0659980632430E+00 -2.9323814506532E-01
    55  5.4000000000000E-01  1.0865421471395E+00 -2.8793246867981E-01
    56  5.5000000000000E-01  1.1063655850948E+00 -2.8189470612752E-01
    57  5.6000000000000E-01  1.1254403257245E+00 -2.7513165408965E-01
    58  5.7000000000000E-01  1.1437394722135E+00 -2.6765125727160E-01
    59  5.8000000000000E-01  1.1612372671775E+00 -2.5946246702464E-01
    60  5.9000000000000E-01  1.1779090760181E+00 -2.5057509878536E-01
    61  6.0000000000000E-01  1.1937313692498E+00 -2.4099968963226E-01
    62  6.1000000000000E-01  1.2086817042768E+00 -2.3074735725631E-01
    63  6.2000000000000E-01  1.2227387070927E+00 -2.1982966162926E-01
    64  6.3000000000000E-01  1.2358820543685E+00 -2.0825847063120E-01
    65  6.4000000000000E-01  1.2480924563815E+00 -1.9604583086689E-01
    66  6.5000000000000E-01  1.2593516412189E+00 -1.8320384485862E-01
    67  6.6000000000000E-01  1.2696423406741E+00 -1.6974455575286E-01
    68  6.7000000000000E-01  1.2789482782253E+00 -1.5567984061795E-01
    69  6.8000000000000E-01  1.2872541594614E+00 -1.4102131334226E-01
    70  6.9000000000000E-01  1.2945456652878E+00 -1.2578023806516E-01
    71  7.0000000000000E-01  1.3008094482125E+00 -1.0996745398981E-01
    72  7.1000000000000E-01  1.3060331319746E+00 -9.3593312334812E-02
    73  7.2000000000000E-01  1.3102053147378E+00 -7.6667626084609E-02
    74  7.3000000000000E-01  1.3133155760327E+00 -5.9199633094612E-02
    75  7.4000000000000E-01  1.3153544875829E+00 -4.1197972998131E-02