Ba    ONCVPSP-4.0.1  r_core=   2.80614   2.80614   2.80614   2.80614
     56.0000     10.0000      230118    zatom,zion,pspd
     8       2   3     4   600     0    pspcod,pspxc,lmax,lloc,mmax,r2well
  5.99000000  5.00000000  0.00000000    rchrg fchrg qchrg
     2     2     2     2     0    nproj
     1     1           extension_switch
   0                         4.5710336112924E+00  6.8734950158494E-01
     1  0.0000000000000E+00  8.1301632093300E-13 -1.5148299281620E-12
     2  1.0000000000000E-02  2.9117027047622E-02 -9.6705075415315E-03
     3  2.0000000000000E-02  5.8219489180608E-02 -1.9330253215701E-02
     4  3.0000000000000E-02  8.7292817559153E-02 -2.8968463378547E-02
     5  4.0000000000000E-02  1.1632243554590E-01 -3.8574340927994E-02
     6  5.0000000000000E-02  1.4529375493894E-01 -4.8137053812103E-02
     7  6.0000000000000E-02  1.7419217236241E-01 -5.7645723821068E-02
     8  7.0000000000000E-02  2.0300306586620E-01 -6.7089415755743E-02
     9  8.0000000000000E-02  2.3171179178561E-01 -7.6457127064048E-02
    10  9.0000000000000E-02  2.6030368191073E-01 -8.5737778034708E-02
    11  1.0000000000000E-01  2.8876404101406E-01 -9.4920202635561E-02
    12  1.1000000000000E-01  3.1707814478371E-01 -1.0399314008114E-01
    13  1.2000000000000E-01  3.4523123820760E-01 -1.1294522721125E-01
    14  1.3000000000000E-01  3.7320853445283E-01 -1.2176499175915E-01
    15  1.4000000000000E-01  4.0099521428197E-01 -1.3044084658420E-01
    16  1.5000000000000E-01  4.2857642604630E-01 -1.3896108494024E-01
    17  1.6000000000000E-01  4.5593728629359E-01 -1.4731387684650E-01
    18  1.7000000000000E-01  4.8306288102574E-01 -1.5548726662373E-01
    19  1.8000000000000E-01  5.0993826763900E-01 -1.6346917165326E-01
    20  1.9000000000000E-01  5.3654847757679E-01 -1.7124738241199E-01
    21  2.0000000000000E-01  5.6287851972241E-01 -1.7880956383104E-01
    22  2.1000000000000E-01  5.8891338455608E-01 -1.8614325802038E-01
    23  2.2000000000000E-01  6.1463804909750E-01 -1.9323588839638E-01
    24  2.3000000000000E-01  6.4003748265223E-01 -2.0007476524326E-01
    25  2.4000000000000E-01  6.6509665337699E-01 -2.0664709273369E-01
    26  2.5000000000000E-01  6.8980053567548E-01 -2.1293997742786E-01
    27  2.6000000000000E-01  7.1413411843323E-01 -2.1894043826399E-01
    28  2.7000000000000E-01  7.3808241409652E-01 -2.2463541804727E-01
    29  2.8000000000000E-01  7.6163046859691E-01 -2.3001179643794E-01
    30  2.9000000000000E-01  7.8476337211954E-01 -2.3505640443276E-01
    31  3.0000000000000E-01  8.0746627070983E-01 -2.3975604032807E-01
    32  3.1000000000000E-01  8.2972437870986E-01 -2.4409748714611E-01
    33  3.2000000000000E-01  8.5152299201198E-01 -2.4806753150007E-01
    34  3.3000000000000E-01  8.7284750211395E-01 -2.5165298386718E-01
    35  3.4000000000000E-01  8.9368341095654E-01 -2.5484070023288E-01
    36  3.5000000000000E-01  9.1401634652077E-01 -2.5761760506313E-01
    37  3.6000000000000E-01  9.3383207915911E-01 -2.5997071555588E-01
    38  3.7000000000000E-01  9.5311653863133E-01 -2.6188716711709E-01
    39  3.8000000000000E-01  9.7185583181265E-01 -2.6335424000079E-01
    40  3.9000000000000E-01  9.9003626103872E-01 -2.6435938704738E-01
    41  4.0000000000000E-01  1.0076443430489E+00 -2.6489026244904E-01
    42  4.1000000000000E-01  1.0246668284862E+00 -2.6493475146609E-01
    43  4.2000000000000E-01  1.0410907219107E+00 -2.6448100101314E-01
    44  4.3000000000000E-01  1.0569033022777E+00 -2.6351745102954E-01
    45  4.4000000000000E-01  1.0720921438328E+00 -2.6203286654422E-01
    46  4.5000000000000E-01  1.0866451373723E+00 -2.6001637034089E-01
    47  4.6000000000000E-01  1.1005505118128E+00 -2.5745747612598E-01
    48  4.7000000000000E-01  1.1137968560166E+00 -2.5434612209823E-01
    49  4.8000000000000E-01  1.1263731408131E+00 -2.5067270481567E-01
    50  4.9000000000000E-01  1.1382687411570E+00 -2.4642811325313E-01
    51  5.0000000000000E-01  1.1494734583623E+00 -2.4160376294081E-01
    52  5.1000000000000E-01  1.1599775423485E+00 -2.3619163007251E-01
    53  5.2000000000000E-01  1.1697717138368E+00 -2.3018428547043E-01
    54  5.3000000000000E-01  1.1788471864301E+00 -2.2357492829181E-01
    55  5.4000000000000E-01  1.1871956885109E+00 -2.1635741936237E-01
    56  5.5000000000000E-01  1.1948094848930E+00 -2.0852631402002E-01
    57  5.6000000000000E-01  1.2016813981581E+00 -2.0007689435305E-01
    58  5.7000000000000E-01  1.2078048296113E+00 -1.9100520071626E-01
    59  5.8000000000000E-01  1.2131737797903E+00 -1.8130806241002E-01
    60  5.9000000000000E-01  1.2177828684589E+00 -1.7098312740707E-01
    61  6.0000000000000E-01  1.2216273540214E+00 -1.6002889101431E-01
    62  6.1000000000000E-01  1.2247031522912E+00 -1.4844472335759E-01
    63  6.2000000000000E-01  1.2270068545491E+00 -1.3623089558021E-01
    64  6.3000000000000E-01  1.2285357448286E+00 -1.2338860464776E-01
    65  6.4000000000000E-01  1.2292878163648E+00 -1.0991999665516E-01
    66  6.5000000000000E-01  1.2292617871475E+00 -9.5828188534562E-02
    67  6.6000000000000E-01  1.2284571145176E+00 -8.1117288066211E-02
    68  6.7000000000000E-01  1.2268740087515E+00 -6.5792412098596E-02
    69  6.8000000000000E-01  1.2245134455768E+00 -4.9859702887710E-02
    70  6.9000000000000E-01  1.2213771775668E+00 -3.3326342470112E-02
    71  7.0000000000000E-01  1.2174677443626E+00 -1.6200564989005E-02
    72  7.1000000000000E-01  1.2127884816757E+00  1.5083331024154E-03
    73  7.2000000000000E-01  1.2073435290237E+00  1.9789985030959E-02
    74  7.3000000000000E-01  1.2011378361585E+00  3.8632947951665E-02
    75  7.4000000000000E-01  1.1941771681458E+00  5.8024699513697E-02
    76  7.5000000000000E-01  1.1864681090604E+00  7.7951636797226E-02
    77  7.6000000000000E-01  1.1780180642626E+00  9.8399077668476E-02
    78  7.7000000000000E-01  1.1688352612270E+00  1.1935126459398E-01
    79  7.8000000000000E-01  1.1589287488966E+00  1.4079137094835E-01
    80  7.9000000000000E-01  1.1483083955393E+00  1.6270150984361E-01
    81  8.0000000000000E-01  1.1369848850868E+00  1.8506274550089E-01
    82  8.1000000000000E-01  1.1249697119417E+00  2.0785510717920E-01
    83  8.2000000000000E-01  1.1122751742393E+00  2.3105760566820E-01
    84  8.3000000000000E-01  1.0989143655571E+00  2.5464825234571E-01
    85  8.4000000000000E-01  1.0849011650678E+00  2.7860408079327E-01
    86  8.5000000000000E-01  1.0702502261346E+00  3.0290117095601E-01
    87  8.6000000000000E-01  1.0549769633543E+00  3.2751467582631E-01
    88  8.7000000000000E-01  1.0390975380533E+00  3.5241885062355E-01
    89  8.8000000000000E-01  1.0226288422509E+00  3.7758708443527E-01
    90  8.9000000000000E-01  1.0055884811028E+00  4.0299193427833E-01
    91  9.0000000000000E-01  9.8799475384626E-01  4.2860516153157E-01
    92  9.1000000000000E-01  9.6986663326895E-01  4.5439777068505E-01
    93  9.2000000000000E-01  9.5122374372904E-01  4.8034005034408E-01
    94  9.3000000000000E-01  9.3208633775757E-01  5.0640161641997E-01
    95  9.4000000000000E-01  9.1247527127748E-01  5.3255145743297E-01
    96  9.5000000000000E-01  8.9241197747773E-01  5.5875798184692E-01
    97  9.6000000000000E-01  8.7191843938437E-01  5.8498906734897E-01
    98  9.7000000000000E-01  8.5101716117368E-01  6.1121211198211E-01
    99  9.8000000000000E-01  8.2973113827629E-01  6.3739408703271E-01
   100  9.9000000000000E-01  8.0808382632400E-01  6.6350159156998E-01
   101  1.0000000000000E+00  7.8609910899458E-01  6.8950090852917E-01
   102  1.0100000000000E+00  7.6380126481232E-01  7.1535806222564E-01
   103  1.0200000000000E+00  7.4121493296554E-01  7.4103887718232E-01
   104  1.0300000000000E+00  7.1836507820464E-01  7.6650903814899E-01
   105  1.0400000000000E+00  6.9527695488674E-01  7.9173415118775E-01
   106  1.0500000000000E+00  6.7197607023590E-01  8.1667980569560E-01
   107  1.0600000000000E+00  6.4848814688951E-01  8.4131163723157E-01
   108  1.0700000000000E+00  6.2483908480397E-01  8.6559539101301E-01
   109  1.0800000000000E+00  6.0105492259471E-01  8.8949698594296E-01
   110  1.0900000000000E+00  5.7716179838678E-01  9.1298257902820E-01
   111  1.1000000000000E+00  5.5318591025469E-01  9.3601863004559E-01
   112  1.1100000000000E+00  5.2915347633059E-01  9.5857196631278E-01
   113  1.1200000000000E+00  5.0509069466183E-01  9.8060984741799E-01
   114  1.1300000000000E+00  4.8102370289941E-01  1.0021000297628E+00
   115  1.1400000000000E+00  4.5697853789981E-01  1.0230108307708E+00
   116  1.1500000000000E+00  4.3298109532333E-01  1.0433111926163E+00
   117  1.1600000000000E+00  4.0905708931236E-01  1.0629707453242E+00
   118  1.1700000000000E+00  3.8523201233312E-01  1.0819598690971E+00
   119  1.1800000000000E+00  3.6153109526471E-01  1.1002497557226E+00
   120  1.1900000000000E+00  3.3797926781862E-01  1.1178124689165E+00
   121  1.2000000000000E+00  3.1460111937203E-01  1.1346210034602E+00
   122  1.2100000000000E+00  2.9142086029703E-01  1.1506493429902E+00
   123  1.2200000000000E+00  2.6846228386764E-01  1.1658725163014E+00
   124  1.2300000000000E+00  2.4574872882513E-01  1.1802666520282E+00
   125  1.2400000000000E+00  2.2330304268115E-01  1.1938090315692E+00
   126  1.2500000000000E+00  2.0114754583692E-01  1.2064781401268E+00
   127  1.2600000000000E+00  1.7930399659494E-01  1.2182537157320E+00
   128  1.2700000000000E+00  1.5779355713815E-01  1.2291167961350E+00
   129  1.2800000000000E+00  1.3663676054958E-01  1.2390497634386E+00
   130  1.2900000000000E+00  1.1585347894346E-01  1.2480363863627E+00
   131  1.3000000000000E+00  9.5462892776557E-02  1.2560618600271E+00
   132  1.3100000000000E+00  7.5483461405999E-02  1.2631128431485E+00
   133  1.3200000000000E+00  5.5932894957708E-02  1.2691774925501E+00
   134  1.3300000000000E+00  3.6828127566491E-02  1.2742454948897E+00
   135  1.3400000000000E+00  1.8185292046319E-02  1.2783080955138E+00
   136  1.3500000000000E+00  1.9696046318472E-05  1.2813581243560E+00
   137  1.3600000000000E+00 -1.7654200255004E-02  1.2833900187996E+00
   138  1.3700000000000E+00 -3.4822804867974E-02  1.2843998434312E+00
   139  1.3800000000000E+00 -5.1473413076212E-02  1.2843853066203E+00
   140  1.3900000000000E+00 -6.7594224844677E-02  1.2833457738626E+00
   141  1.4000000000000E+00 -8.3174360511826E-02  1.2812822778345E+00
   142  1.4100000000000E+00 -9.8203874730135E-02  1.2781975251098E+00
   143  1.4200000000000E+00 -1.1267376862269E-01  1.2740958994983E+00
   144  1.4300000000000E+00 -1.2657600012723E-01  1.2689834619719E+00
   145  1.4400000000000E+00 -1.3990349250266E-01  1.2628679471486E+00
   146  1.4500000000000E+00 -1.5265014097690E-01  1.2557587563156E+00
   147  1.4600000000000E+00 -1.6481081751857E-01  1.2476669469744E+00
   148  1.4700000000000E+00 -1.7638137371889E-01  1.2386052189023E+00
   149  1.4800000000000E+00 -1.8735864177383E-01  1.2285878967272E+00
   150  1.4900000000000E+00 -1.9774043356070E-01  1.2176309090220E+00
   151  1.5000000000000E+00 -2.0752553780660E-01  1.2057517639308E+00
   152  1.5100000000000E+00 -2.1671371535059E-01  1.1929695213452E+00
   153  1.5200000000000E+00 -2.2530569250458E-01  1.1793047616555E+00
   154  1.5300000000000E+00 -2.3330315252235E-01  1.1647795511093E+00
   155  1.5400000000000E+00 -2.4070872518900E-01  1.1494174038142E+00
   156  1.5500000000000E+00 -2.4752597454759E-01  1.1332432404289E+00
   157  1.5600000000000E+00 -2.5375938478278E-01  1.1162833435935E+00
   158  1.5700000000000E+00 -2.5941434428488E-01  1.0985653101532E+00
   159  1.5800000000000E+00 -2.6449712792149E-01  1.0801180002395E+00
   160  1.5900000000000E+00 -2.6901487754682E-01  1.0609714832737E+00
   161  1.6000000000000E+00 -2.7297558078243E-01  1.0411569809674E+00
   162  1.6100000000000E+00 -2.7638804810608E-01  1.0207068073961E+00
   163  1.6200000000000E+00 -2.7926188828862E-01  9.9965430623078E-01
   164  1.6300000000000E+00 -2.8160748222166E-01  9.7803378521295E-01
   165  1.6400000000000E+00 -2.8343595518181E-01  9.5588044796758E-01
   166  1.6500000000000E+00 -2.8475914757975E-01  9.3323032324872E-01
   167  1.6600000000000E+00 -2.8558958424526E-01  9.1012019171967E-01
   168  1.6700000000000E+00 -2.8594044230158E-01  8.8658751037165E-01
   169  1.6800000000000E+00 -2.8582551768496E-01  8.6267033468924E-01
   170  1.6900000000000E+00 -2.8525919036731E-01  8.3840723867407E-01
   171  1.7000000000000E+00 -2.8425638834191E-01  8.1383723284112E-01
   172  1.7100000000000E+00 -2.8283255043423E-01  7.8899968030501E-01
   173  1.7200000000000E+00 -2.8100358800118E-01  7.6393421107578E-01
   174  1.7300000000000E+00 -2.7878584558419E-01  7.3868063468640E-01
   175  1.7400000000000E+00 -2.7619606058248E-01  7.1327885127556E-01
   176  1.7500000000000E+00 -2.7325132201442E-01  6.8776876125129E-01
   177  1.7600000000000E+00 -2.6996902843579E-01  6.6219017366227E-01
   178  1.7700000000000E+00 -2.6636684508462E-01  6.3658271340446E-01
   179  1.7800000000000E+00 -2.6246266032318E-01  6.1098572739165E-01
   180  1.7900000000000E+00 -2.5827454144808E-01  5.8543818981889E-01
   181  1.8000000000000E+00 -2.5382068993995E-01  5.5997860664782E-01
   182  1.8100000000000E+00 -2.4911939622421E-01  5.3464491944286E-01
   183  1.8200000000000E+00 -2.4418899401487E-01  5.0947440868667E-01
   184  1.8300000000000E+00 -2.3904781431259E-01  4.8450359670266E-01
   185  1.8400000000000E+00 -2.3371413912860E-01  4.5976815031111E-01
   186  1.8500000000000E+00 -2.2820615500513E-01  4.3530278334443E-01
   187  1.8600000000000E+00 -2.2254190640265E-01  4.1114115914518E-01
   188  1.8700000000000E+00 -2.1673924902337E-01  3.8731579316890E-01
   189  1.8800000000000E+00 -2.1081580313956E-01  3.6385795581144E-01
   190  1.8900000000000E+00 -2.0478890699410E-01  3.4079757557829E-01
   191  1.9000000000000E+00 -1.9867557033965E-01  3.1816314271065E-01
   192  1.9100000000000E+00 -1.9249242818114E-01  2.9598161338018E-01
   193  1.9200000000000E+00 -1.8625569478511E-01  2.7427831456129E-01
   194  1.9300000000000E+00 -1.7998111801763E-01  2.5307684968639E-01
   195  1.9400000000000E+00 -1.7368393407071E-01  2.3239900518621E-01
   196  1.9500000000000E+00 -1.6737882263544E-01  2.1226465801329E-01
   197  1.9600000000000E+00 -1.6107986257784E-01  1.9269168424306E-01
   198  1.9700000000000E+00 -1.5480048817154E-01  1.7369586884280E-01
   199  1.9800000000000E+00 -1.4855344587277E-01  1.5529081640874E-01
   200  1.9900000000000E+00 -1.4235075164818E-01  1.3748786284101E-01
   201  2.0000000000000E+00 -1.3620365298692E-01  1.2029600526291E-01
   202  2.0100000000000E+00 -1.3012257232212E-01  1.0372175066445E-01
   203  2.0200000000000E+00 -1.2411713953599E-01  8.7769346490133E-02
   204  2.0300000000000E+00 -1.1819634307117E-01  7.2441502678899E-02
   205  2.0400000000000E+00 -1.1236866803528E-01  5.7740017064476E-02
   206  2.0500000000000E+00 -1.0664209063503E-01  4.3665763578897E-02
   207  2.0600000000000E+00 -1.0102407823361E-01  3.0218702444154E-02
   208  2.0700000000000E+00 -9.5521589812176E-02  1.7397890015982E-02
   209  2.0800000000000E+00 -9.0141077256831E-02  5.2014897643798E-03
   210  2.0900000000000E+00 -8.4888487305220E-02 -6.3732161695703E-03
   211  2.1000000000000E+00 -7.9769264410321E-02 -1.7329813701630E-02
   212  2.1100000000000E+00 -7.4788354440971E-02 -2.7672742139649E-02
   213  2.1200000000000E+00 -6.9950209203386E-02 -3.7407278160321E-02
   214  2.1300000000000E+00 -6.5258791766754E-02 -4.6539518463578E-02
   215  2.1400000000000E+00 -6.0717582574870E-02 -5.5076361142156E-02
   216  2.1500000000000E+00 -5.6329586324790E-02 -6.3025485805031E-02
   217  2.1600000000000E+00 -5.2097339592506E-02 -7.0395332494745E-02
   218  2.1700000000000E+00 -4.8022919184633E-02 -7.7195079439811E-02
   219  2.1800000000000E+00 -4.4107951194241E-02 -8.3434619684596E-02
   220  2.1900000000000E+00 -4.0353620737963E-02 -8.9124536640344E-02
   221  2.2000000000000E+00 -3.6760682350827E-02 -9.4276078601920E-02
   222  2.2100000000000E+00 -3.3329471014230E-02 -9.8901132276241E-02
   223  2.2200000000000E+00 -3.0059913791793E-02 -1.0301219536930E-01
   224  2.2300000000000E+00 -2.6951542047007E-02 -1.0662234827984E-01
   225  2.2400000000000E+00 -2.4003504215982E-02 -1.0974522494851E-01
   226  2.2500000000000E+00 -2.1214579107755E-02 -1.1239498291267E-01
   227  2.2600000000000E+00 -1.8583189704053E-02 -1.1458627261772E-01
   228  2.2700000000000E+00 -1.6107417429765E-02 -1.1633420603683E-01
   229  2.2800000000000E+00 -1.3785016864860E-02 -1.1765432465163E-01
   230  2.2900000000000E+00 -1.1613430867878E-02 -1.1856256684755E-01
   231  2.3000000000000E+00 -9.5898060806386E-03 -1.1907523477784E-01
   232  2.3100000000000E+00 -7.7110087833838E-03 -1.1920896075151E-01
   233  2.3200000000000E+00 -5.9736410692071E-03 -1.1898067320045E-01
   234  2.3300000000000E+00 -4.3740573061450E-03 -1.1840756228219E-01
   235  2.3400000000000E+00 -2.9083808550692E-03 -1.1750704517482E-01
   236  2.3500000000000E+00 -1.5725210112247E-03 -1.1629673112139E-01
   237  2.3600000000000E+00 -3.6219013703371E-04 -1.1479438628121E-01
   238  2.3700000000000E+00  7.2707904640944E-04 -1.1301789844597E-01
   239  2.3800000000000E+00  1.6999160418045E-03 -1.1098524167865E-01
   240  2.3900000000000E+00  2.5610950651935E-03 -1.0871444093467E-01
   241  2.4000000000000E+00  3.3155174746237E-03 -1.0622353672093E-01
   242  2.4100000000000E+00  3.9681941711744E-03 -1.0353054985266E-01
   243  2.4200000000000E+00  4.5242280059422E-03 -1.0065344636947E-01
   244  2.4300000000000E+00  4.9887962241758E-03 -9.7610102663596E-02
   245  2.4400000000000E+00  5.3671329796208E-03 -9.4418270880493E-02
   246  2.4500000000000E+00  5.6645119514659E-03 -9.1095544650011E-02
   247  2.4600000000000E+00  5.8862290957275E-03 -8.7659325204536E-02
   248  2.4700000000000E+00  6.0375855626960E-03 -8.4126787940923E-02
   249  2.4800000000000E+00  6.1238708116138E-03 -8.0514849482050E-02
   250  2.4900000000000E+00  6.1503459537234E-03 -7.6840135293842E-02
   251  2.5000000000000E+00  6.1222273538254E-03 -7.3118947911938E-02
   252  2.5100000000000E+00  6.0446705200927E-03 -6.9367235831462E-02
   253  2.5200000000000E+00  5.9227543117966E-03 -6.5600563113299E-02
   254  2.5300000000000E+00  5.7614654932907E-03 -6.1834079757964E-02
   255  2.5400000000000E+00  5.5656836620689E-03 -5.8082492897252E-02
   256  2.5500000000000E+00  5.3401665786745E-03 -5.4360038853818E-02
   257  2.5600000000000E+00  5.0895359245168E-03 -5.0680456115797E-02
   258  2.5700000000000E+00  4.8182635130413E-03 -4.7056959272497E-02
   259  2.5800000000000E+00  4.5306579798262E-03 -4.3502213957454E-02
   260  2.5900000000000E+00  4.2308519747613E-03 -4.0028312840808E-02
   261  2.6000000000000E+00  3.9227898792410E-03 -3.6646752712558E-02
   262  2.6100000000000E+00  3.6102160710870E-03 -3.3368412697884E-02
   263  2.6200000000000E+00  3.2966644453062E-03 -3.0203535563722E-02
   264  2.6300000000000E+00  2.9854434154846E-03 -2.7161695996803E-02
   265  2.6400000000000E+00  2.6796359559309E-03 -2.4251810280427E-02
   266  2.6500000000000E+00  2.3820823263434E-03 -2.1482096917130E-02
   267  2.6600000000000E+00  2.0953690459444E-03 -1.8860057040926E-02
   268  2.6700000000000E+00  1.8217244096376E-03 -1.6392186623628E-02
   269  2.6800000000000E+00  1.5628423871156E-03 -1.4083486345014E-02
   270  2.6900000000000E+00  1.3204134238345E-03 -1.1938953733868E-02
   271  2.7000000000000E+00  1.0961770429161E-03 -9.9637411844307E-03
   272  2.7100000000000E+00  8.9150539752984E-04 -8.1620089217182E-03
   273  2.7200000000000E+00  7.0745759476267E-04 -6.5370796947948E-03
   274  2.7300000000000E+00  5.4479270533222E-04 -5.0914776036901E-03
   275  2.7400000000000E+00  4.0395659975836E-04 -3.8268955496279E-03
   276  2.7500000000000E+00  2.8508337441116E-04 -2.7442019329878E-03
   277  2.7600000000000E+00  1.8802076221458E-04 -1.8437637202607E-03
   278  2.7700000000000E+00  1.1221865216768E-04 -1.1241196301767E-03
   279  2.7800000000000E+00  5.6607664065491E-05 -5.8069414737082E-04
   280  2.7900000000000E+00  2.1003269472982E-05 -2.2159766875370E-04
   281  2.8000000000000E+00  3.9451243014954E-06 -4.3067317066367E-05
   282  2.8100000000000E+00 -8.9506887769267E-07  9.9467559820259E-06
   283  2.8200000000000E+00 -3.8252564299696E-07  4.3267410865901E-06
   284  2.83  0. -0.
   285  2.84 -0.  0.
   286  2.85 -0.  0.
   287  2.86 -0.  0.
   288  2.87 -0.  0.
   289  2.88  0.  0.
   290  2.89  0.  0.
   291  2.90  0.  0.
   292  2.91  0.  0.
   293  2.92  0.  0.
   294  2.93  0.  0.
   295  2.94  0.  0.
   296  2.95  0.  0.
   297  2.96  0.  0.
   298  2.97  0.  0.
   299  2.98  0.  0.
   300  2.99  0.  0.
   301  3.00  0.  0.
   302  3.01  0.  0.
   303  3.02  0.  0.
   304  3.03  0.  0.
   305  3.04  0.  0.
   306  3.05  0.  0.
   307  3.06  0.  0.
   308  3.07  0.  0.
   309  3.08  0.  0.
   310  3.09  0.  0.
   311  3.10  0.  0.
   312  3.11  0.  0.
   313  3.12  0.  0.
   314  3.13  0.  0.
   315  3.14  0.  0.
   316  3.15  0.  0.
   317  3.16  0.  0.
   318  3.17  0.  0.
   319  3.18  0.  0.
   320  3.19  0.  0.
   321  3.20  0.  0.
   322  3.21  0.  0.
   323  3.22  0.  0.
   324  3.23  0.  0.
   325  3.24  0.  0.
   326  3.25  0.  0.
   327  3.26  0.  0.
   328  3.27  0.  0.
   329  3.28  0.  0.
   330  3.29  0.  0.
   331  3.30  0.  0.
   332  3.31  0.  0.
   333  3.32  0.  0.
   334  3.33  0.  0.
   335  3.34  0.  0.
   336  3.35  0.  0.
   337  3.36  0.  0.
   338  3.37  0.  0.
   339  3.38  0.  0.
   340  3.39  0.  0.
   341  3.40  0.  0.
   342  3.41  0.  0.
   343  3.42  0.  0.
   344  3.43  0.  0.
   345  3.44  0.  0.
   346  3.45  0.  0.
   347  3.46  0.  0.
   348  3.47  0.  0.
   349  3.48  0.  0.
   350  3.49  0.  0.
   351  3.50  0.  0.
   352  3.51  0.  0.
   353  3.52  0.  0.
   354  3.53  0.  0.
   355  3.54  0.  0.
   356  3.55  0.  0.
   357  3.56  0.  0.
   358  3.57  0.  0.
   359  3.58  0.  0.
   360  3.59  0.  0.
   361  3.60  0.  0.
   362  3.61  0.  0.
   363  3.62  0.  0.
   364  3.63  0.  0.
   365  3.64  0.  0.
   366  3.65  0.  0.
   367  3.66  0.  0.
   368  3.67  0.  0.
   369  3.68  0.  0.
   370  3.69  0.  0.
   371  3.70  0.  0.
   372  3.71  0.  0.
   373  3.72  0.  0.
   374  3.73  0.  0.
   375  3.74  0.  0.
   376  3.75  0.  0.
   377  3.76  0.  0.
   378  3.77  0.  0.
   379  3.78  0.  0.
   380  3.79  0.  0.
   381  3.80  0.  0.
   382  3.81  0.  0.
   383  3.82  0.  0.
   384  3.83  0.  0.
   385  3.84  0.  0.
   386  3.85  0.  0.
   387  3.86  0.  0.
   388  3.87  0.  0.
   389  3.88  0.  0.
   390  3.89  0.  0.
   391  3.90  0.  0.
   392  3.91  0.  0.
   393  3.92  0.  0.
   394  3.93  0.  0.
   395  3.94  0.  0.
   396  3.95  0.  0.
   397  3.96  0.  0.
   398  3.97  0.  0.
   399  3.98  0.  0.
   400  3.99  0.  0.
   401  4.00  0.  0.
   402  4.01  0.  0.
   403  4.02  0.  0.
   404  4.03  0.  0.
   405  4.04  0.  0.
   406  4.05  0.  0.
   407  4.06  0.  0.
   408  4.07  0.  0.
   409  4.08  0.  0.
   410  4.09  0.  0.
   411  4.10  0.  0.
   412  4.11  0.  0.
   413  4.12  0.  0.
   414  4.13  0.  0.
   415  4.14  0.  0.
   416  4.15  0.  0.
   417  4.16  0.  0.
   418  4.17  0.  0.
   419  4.18  0.  0.
   420  4.19  0.  0.
   421  4.20  0.  0.
   422  4.21  0.  0.
   423  4.22  0.  0.
   424  4.23  0.  0.
   425  4.24  0.  0.
   426  4.25  0.  0.
   427  4.26  0.  0.
   428  4.27  0.  0.
   429  4.28  0.  0.
   430  4.29  0.  0.
   431  4.30  0.  0.
   432  4.31  0.  0.
   433  4.32  0.  0.
   434  4.33  0.  0.
   435  4.34  0.  0.
   436  4.35  0.  0.
   437  4.36  0.  0.
   438  4.37  0.  0.
   439  4.38  0.  0.
   440  4.39  0.  0.
   441  4.40  0.  0.
   442  4.41  0.  0.
   443  4.42  0.  0.
   444  4.43  0.  0.
   445  4.44  0.  0.
   446  4.45  0.  0.
   447  4.46  0.  0.
   448  4.47  0.  0.
   449  4.48  0.  0.
   450  4.49  0.  0.
   451  4.50  0.  0.
   452  4.51  0.  0.
   453  4.52  0.  0.
   454  4.53  0.  0.
   455  4.54  0.  0.
   456  4.55  0.  0.
   457  4.56  0.  0.
   458  4.57  0.  0.
   459  4.58  0.  0.
   460  4.59  0.  0.
   461  4.60  0.  0.
   462  4.61  0.  0.
   463  4.62  0.  0.
   464  4.63  0.  0.
   465  4.64  0.  0.
   466  4.65  0.  0.
   467  4.66  0.  0.
   468  4.67  0.  0.
   469  4.68  0.  0.
   470  4.69  0.  0.
   471  4.70  0.  0.
   472  4.71  0.  0.
   473  4.72  0.  0.
   474  4.73  0.  0.
   475  4.74  0.  0.
   476  4.75  0.  0.
   477  4.76  0.  0.
   478  4.77  0.  0.
   479  4.78  0.  0.
   480  4.79  0.  0.
   481  4.80  0.  0.
   482  4.81  0.  0.
   483  4.82  0.  0.
   484  4.83  0.  0.
   485  4.84  0.  0.
   486  4.85  0.  0.
   487  4.86  0.  0.
   488  4.87  0.  0.
   489  4.88  0.  0.
   490  4.89  0.  0.
   491  4.90  0.  0.
   492  4.91  0.  0.
   493  4.92  0.  0.
   494  4.93  0.  0.
   495  4.94  0.  0.
   496  4.95  0.  0.
   497  4.96  0.  0.
   498  4.97  0.  0.
   499  4.98  0.  0.
   500  4.99  0.  0.
   501  5.00  0.  0.
   502  5.01  0.  0.
   503  5.02  0.  0.
   504  5.03  0.  0.
   505  5.04  0.  0.
   506  5.05  0.  0.
   507  5.06  0.  0.
   508  5.07  0.  0.
   509  5.08  0.  0.
   510  5.09  0.  0.
   511  5.10  0.  0.
   512  5.11  0.  0.
   513  5.12  0.  0.
   514  5.13  0.  0.
   515  5.14  0.  0.
   516  5.15  0.  0.
   517  5.16  0.  0.
   518  5.17  0.  0.
   519  5.18  0.  0.
   520  5.19  0.  0.
   521  5.20  0.  0.
   522  5.21  0.  0.
   523  5.22  0.  0.
   524  5.23  0.  0.
   525  5.24  0.  0.
   526  5.25  0.  0.
   527  5.26  0.  0.
   528  5.27  0.  0.
   529  5.28  0.  0.
   530  5.29  0.  0.
   531  5.30  0.  0.
   532  5.31  0.  0.
   533  5.32  0.  0.
   534  5.33  0.  0.
   535  5.34  0.  0.
   536  5.35  0.  0.
   537  5.36  0.  0.
   538  5.37  0.  0.
   539  5.38  0.  0.
   540  5.39  0.  0.
   541  5.40  0.  0.
   542  5.41  0.  0.
   543  5.42  0.  0.
   544  5.43  0.  0.
   545  5.44  0.  0.
   546  5.45  0.  0.
   547  5.46  0.  0.
   548  5.47  0.  0.
   549  5.48  0.  0.
   550  5.49  0.  0.
   551  5.50  0.  0.
   552  5.51  0.  0.
   553  5.52  0.  0.
   554  5.53  0.  0.
   555  5.54  0.  0.
   556  5.55  0.  0.
   557  5.56  0.  0.
   558  5.57  0.  0.
   559  5.58  0.  0.
   560  5.59  0.  0.
   561  5.60  0.  0.
   562  5.61  0.  0.
   563  5.62  0.  0.
   564  5.63  0.  0.
   565  5.64  0.  0.
   566  5.65  0.  0.
   567  5.66  0.  0.
   568  5.67  0.  0.
   569  5.68  0.  0.
   570  5.69  0.  0.
   571  5.70  0.  0.
   572  5.71  0.  0.
   573  5.72  0.  0.
   574  5.73  0.  0.
   575  5.74  0.  0.
   576  5.75  0.  0.
   577  5.76  0.  0.
   578  5.77  0.  0.
   579  5.78  0.  0.
   580  5.79  0.  0.
   581  5.80  0.  0.
   582  5.81  0.  0.
   583  5.82  0.  0.
   584  5.83  0.  0.
   585  5.84  0.  0.
   586  5.85  0.  0.
   587  5.86  0.  0.
   588  5.87  0.  0.
   589  5.88  0.  0.
   590  5.89  0.  0.
   591  5.90  0.  0.
   592  5.91  0.  0.
   593  5.92  0.  0.
   594  5.93  0.  0.
   595  5.94  0.  0.
   596  5.95  0.  0.
   597  5.96  0.  0.
   598  5.97  0.  0.
   599  5.98  0.  0.
   600  5.99  0.  0.
   1                         2.9120645427938E+00  5.2538921977568E-01
     1  0.0000000000000E+00 -3.2862497445496E-11  7.5706003965781E-11
     2  1.0000000000000E-02  3.8742568487431E-04 -8.2417202669787E-05
     3  2.0000000000000E-02  1.5494937121525E-03 -3.3007392497645E-04
     4  3.0000000000000E-02  3.4855750138470E-03 -7.4418007680142E-04
     5  4.0000000000000E-02  6.1946145407839E-03 -1.3267341044509E-03
     6  5.0000000000000E-02  9.6751214193378E-03 -2.0804960247754E-03
     7  6.0000000000000E-02  1.3925155291497E-02 -3.0089499507150E-03
     8  7.0000000000000E-02  1.8942308957975E-02 -4.1162563839892E-03
     9  8.0000000000000E-02  2.4723687476934E-02 -5.4071946263575E-03
    10  9.0000000000000E-02  3.1265883902796E-02 -6.8870957344585E-03
    11  1.0000000000000E-01  3.8564951880275E-02 -8.5617665140830E-03
    12  1.1000000000000E-01  4.6616375338078E-02 -1.0437405117397E-02
    13  1.2000000000000E-01  5.5415035554419E-02 -1.2520508870796E-02
    14  1.3000000000000E-01  6.4955175892422E-02 -1.4817775021182E-02
    15  1.4000000000000E-01  7.5230364527460E-02 -1.7335995144157E-02
    16  1.5000000000000E-01  8.6233455510400E-02 -2.0081944008695E-02
    17  1.6000000000000E-01  9.7956548530267E-02 -2.3062263738668E-02
    18  1.7000000000000E-01  1.1039094775717E-01 -2.6283344152173E-02
    19  1.8000000000000E-01  1.2352712016097E-01 -2.9751200194421E-02
    20  1.9000000000000E-01  1.3735465371327E-01 -3.3471347408900E-02
    21  2.0000000000000E-01  1.5186221588973E-01 -3.7448676414301E-02
    22  2.1000000000000E-01  1.6703751289632E-01 -4.1687327371260E-02
    23  2.2000000000000E-01  1.8286725004671E-01 -4.6190565433036E-02
    24  2.3000000000000E-01  1.9933709371906E-01 -5.0960658177881E-02
    25  2.4000000000000E-01  2.1643163531828E-01 -5.5998756017804E-02
    26  2.5000000000000E-01  2.3413435766483E-01 -6.1304776568923E-02
    27  2.6000000000000E-01  2.5242760422340E-01 -6.6877293952436E-02
    28  2.7000000000000E-01  2.7129255157375E-01 -7.2713433972568E-02
    29  2.8000000000000E-01  2.9070918551269E-01 -7.8808776088913E-02
    30  2.9000000000000E-01  3.1065628115952E-01 -8.5157263065185E-02
    31  3.0000000000000E-01  3.3111138741844E-01 -9.1751119135115E-02
    32  3.1000000000000E-01  3.5205081612944E-01 -9.8580777478986E-02
    33  3.2000000000000E-01  3.7344963621542E-01 -1.0563481775151E-01
    34  3.3000000000000E-01  3.9528167310640E-01 -1.1289991434364E-01
    35  3.4000000000000E-01  4.1751951369335E-01 -1.2036079599772E-01
    36  3.5000000000000E-01  4.4013451703310E-01 -1.2800021732800E-01
    37  3.6000000000000E-01  4.6309683099343E-01 -1.3579894272608E-01
    38  3.7000000000000E-01  4.8637541499299E-01 -1.4373574305574E-01
    39  3.8000000000000E-01  5.0993806895501E-01 -1.5178740546194E-01
    40  3.9000000000000E-01  5.3375146855667E-01 -1.5992875653725E-01
    41  4.0000000000000E-01  5.5778120681789E-01 -1.6813269900425E-01
    42  4.1000000000000E-01  5.8199184203436E-01 -1.7637026198628E-01
    43  4.2000000000000E-01  6.0634695202017E-01 -1.8461066485138E-01