La    ONCVPSP-4.0.1  r_core=   2.80683   2.50527   2.80683   2.70787
     57.0000     11.0000      230118    zatom,zion,pspd
     8       2   3     4   600     0    pspcod,pspxc,lmax,lloc,mmax,r2well
  5.99000000  5.00000000  0.00000000    rchrg fchrg qchrg
     2     2     2     2     0    nproj
     1     1           extension_switch
   0                         2.0831483859132E+00 -4.4387463995617E-01
     1  0.0000000000000E+00  2.1956880758012E-12  1.4905056355818E-12
     2  1.0000000000000E-02  3.8313498125772E-02 -2.0891276768261E-03
     3  2.0000000000000E-02  7.6594046670110E-02 -4.1654089325074E-03
     4  3.0000000000000E-02  1.1480871432313E-01 -6.2160193461319E-03
     5  4.0000000000000E-02  1.5292460639449E-01 -8.2281784245693E-03
     6  5.0000000000000E-02  1.9090888331374E-01 -1.0189171385030E-02
     7  6.0000000000000E-02  2.2872877935776E-01 -1.2086370721082E-02
     8  7.0000000000000E-02  2.6635162167846E-01 -1.3907257481685E-02
     9  8.0000000000000E-02  3.0374484970169E-01 -1.5639442194315E-02
    10  9.0000000000000E-02  3.4087603496544E-01 -1.7270685365074E-02
    11  1.0000000000000E-01  3.7771290146241E-01 -1.8788917490869E-02
    12  1.1000000000000E-01  4.1422334654814E-01 -2.0182258521319E-02
    13  1.2000000000000E-01  4.5037546247160E-01 -2.1439036710842E-02
    14  1.3000000000000E-01  4.8613755858063E-01 -2.2547806804580E-02
    15  1.4000000000000E-01  5.2147818424940E-01 -2.3497367505260E-02
    16  1.5000000000000E-01  5.5636615256939E-01 -2.4276778171796E-02
    17  1.6000000000000E-01  5.9077056483984E-01 -2.4875374704471E-02
    18  1.7000000000000E-01  6.2466083588678E-01 -2.5282784575681E-02
    19  1.8000000000000E-01  6.5800672023378E-01 -2.5488940969705E-02
    20  1.9000000000000E-01  6.9077833914006E-01 -2.5484095999554E-02
    21  2.0000000000000E-01  7.2294620851488E-01 -2.5258832973722E-02
    22  2.1000000000000E-01  7.5448126770948E-01 -2.4804077690581E-02
    23  2.2000000000000E-01  7.8535490918042E-01 -2.4111108743193E-02
    24  2.3000000000000E-01  8.1553900901036E-01 -2.3171566822387E-02
    25  2.4000000000000E-01  8.4500595826452E-01 -2.1977463011163E-02
    26  2.5000000000000E-01  8.7372869515318E-01 -2.0521186068623E-02
    27  2.6000000000000E-01  9.0168073796266E-01 -1.8795508706855E-02
    28  2.7000000000000E-01  9.2883621870917E-01 -1.6793592869349E-02
    29  2.8000000000000E-01  9.5516991746229E-01 -1.4508994024636E-02
    30  2.9000000000000E-01  9.8065729727686E-01 -1.1935664493853E-02
    31  3.0000000000000E-01  1.0052745396645E+00 -9.0679558358570E-03
    32  3.1000000000000E-01  1.0289985805286E+00 -5.9006203182706E-03
    33  3.2000000000000E-01  1.0518071464790E+00 -2.4288115074630E-03
    34  3.3000000000000E-01  1.0736787914366E+00  1.3519159851495E-03
    35  3.4000000000000E-01  1.0945929334293E+00  5.4456075588893E-03
    36  3.5000000000000E-01  1.1145298914777E+00  9.8559104361495E-03
    37  3.6000000000000E-01  1.1334709224588E+00  1.4586076182070E-02
    38  3.7000000000000E-01  1.1513982578345E+00  1.9638963878957E-02
    39  3.8000000000000E-01  1.1682951401229E+00  2.5017043899743E-02
    40  3.9000000000000E-01  1.1841458589885E+00  3.0722402222086E-02
    41  4.0000000000000E-01  1.1989357868216E+00  3.6756745222254E-02
    42  4.1000000000000E-01  1.2126514136735E+00  4.3121404885922E-02
    43  4.2000000000000E-01  1.2252803814122E+00  4.9817344371358E-02
    44  4.3000000000000E-01  1.2368115169595E+00  5.6845163859167E-02
    45  4.4000000000000E-01  1.2472348644685E+00  6.4205106621940E-02
    46  4.5000000000000E-01  1.2565417163003E+00  7.1897065246650E-02
    47  4.6000000000000E-01  1.2647246426561E+00  7.9920587942606E-02
    48  4.7000000000000E-01  1.2717775197230E+00  8.8274884868161E-02
    49  4.8000000000000E-01  1.2776955561903E+00  9.6958834410153E-02
    50  4.9000000000000E-01  1.2824753179950E+00  1.0597098935126E-01
    51  5.0000000000000E-01  1.2861147511583E+00  1.1530958286213E-01
    52  5.1000000000000E-01  1.2886132025759E+00  1.2497253425717E-01
    53  5.2000000000000E-01  1.2899714386277E+00  1.3495745445530E-01
    54  5.3000000000000E-01  1.2901916614786E+00  1.4526165108998E-01
    55  5.4000000000000E-01  1.2892775229449E+00  1.5588213321583E-01
    56  5.5000000000000E-01  1.2872341358054E+00  1.6681561556308E-01
    57  5.6000000000000E-01  1.2840680824439E+00  1.7805852229474E-01
    58  5.7000000000000E-01  1.2797874207155E+00  1.8960699022606E-01
    59  5.8000000000000E-01  1.2744016869350E+00  2.0145687147019E-01
    60  5.9000000000000E-01  1.2679218958941E+00  2.1360373547901E-01
    61  6.0000000000000E-01  1.2603605378237E+00  2.2604287045345E-01
    62  6.1000000000000E-01  1.2517315722229E+00  2.3876928410286E-01
    63  6.2000000000000E-01  1.2420504184881E+00  2.5177770373889E-01
    64  6.3000000000000E-01  1.2313339432855E+00  2.6506257569506E-01
    65  6.4000000000000E-01  1.2196004446166E+00  2.7861806406944E-01
    66  6.5000000000000E-01  1.2068696325421E+00  2.9243804879399E-01
    67  6.6000000000000E-01  1.1931626065355E+00  3.0651612304026E-01
    68  6.7000000000000E-01  1.1785018294526E+00  3.2084558997782E-01
    69  6.8000000000000E-01  1.1629110981108E+00  3.3541945890789E-01
    70  6.9000000000000E-01  1.1464155104875E+00  3.5023044080125E-01
    71  7.0000000000000E-01  1.1290414295553E+00  3.6527094327586E-01
    72  7.1000000000000E-01  1.1108164437862E+00  3.8053306505579E-01
    73  7.2000000000000E-01  1.0917693243668E+00  3.9600858995932E-01
    74  7.3000000000000E-01  1.0719299791810E+00  4.1168898047031E-01
    75  7.4000000000000E-01  1.0513294036258E+00  4.2756537095245E-01
    76  7.5000000000000E-01  1.0299996283405E+00  4.4362856057199E-01
    77  7.6000000000000E-01  1.0079736639403E+00  4.5986900599979E-01
    78  7.7000000000000E-01  9.8528544285687E-01  4.7627681396870E-01
    79  7.8000000000000E-01  9.6196975840004E-01  4.9284173376713E-01
    80  7.9000000000000E-01  9.3806220116714E-01  5.0955314975406E-01
    81  8.0000000000000E-01  9.1359909293611E-01  5.2640007398503E-01
    82  8.1000000000000E-01  8.8861741819023E-01  5.4337113904198E-01
    83  8.2000000000000E-01  8.6315475343209E-01  5.6045459116347E-01
    84  8.3000000000000E-01  8.3724919445470E-01  5.7763828377436E-01
    85  8.4000000000000E-01  8.1093928174678E-01  5.9490967151626E-01
    86  8.5000000000000E-01  7.8426392421845E-01  6.1225580488228E-01
    87  8.6000000000000E-01  7.5726232144178E-01  6.2966332556027E-01
    88  8.7000000000000E-01  7.2997388460855E-01  6.4711846259009E-01
    89  8.8000000000000E-01  7.0243815641481E-01  6.6460702944012E-01
    90  8.9000000000000E-01  6.7469473008823E-01  6.8211442210824E-01
    91  9.0000000000000E-01  6.4678316778040E-01  6.9962561835126E-01
    92  9.1000000000000E-01  6.1874291855108E-01  7.1712517814525E-01
    93  9.2000000000000E-01  5.9061323617619E-01  7.3459724547731E-01
    94  9.3000000000000E-01  5.6243309701475E-01  7.5202555156619E-01
    95  9.4000000000000E-01  5.3424111817310E-01  7.6939341960627E-01
    96  9.5000000000000E-01  5.0607547620685E-01  7.8668377112507E-01
    97  9.6000000000000E-01  4.7797382660229E-01  8.0387913404029E-01
    98  9.7000000000000E-01  4.4997322427963E-01  8.2096165249718E-01
    99  9.8000000000000E-01  4.2211004536004E-01  8.3791309856134E-01
   100  9.9000000000000E-01  3.9441991043762E-01  8.5471488583612E-01
   101  1.0000000000000E+00  3.6693760959517E-01  8.7134808506681E-01
   102  1.0100000000000E+00  3.3969702940014E-01  8.8779344178692E-01
   103  1.0200000000000E+00  3.1273108211357E-01  9.0403139605394E-01
   104  1.0300000000000E+00  2.8607163734038E-01  9.2004210431401E-01
   105  1.0400000000000E+00  2.5974945634418E-01  9.3580546342645E-01
   106  1.0500000000000E+00  2.3379412924402E-01  9.5130113686991E-01
   107  1.0600000000000E+00  2.0823401530355E-01  9.6650858314296E-01
   108  1.0700000000000E+00  1.8309618651575E-01  9.8140708636213E-01
   109  1.0800000000000E+00  1.5840637467804E-01  9.9597578905059E-01
   110  1.0900000000000E+00  1.3418892214381E-01  1.0101937271004E+00
   111  1.1000000000000E+00  1.1046673642678E-01  1.0240398668814E+00
   112  1.1100000000000E+00  8.7261248824119E-02  1.0374931444581E+00
   113  1.1200000000000E+00  6.4592377213727E-02  1.0505325068677E+00
   114  1.1300000000000E+00  4.2478493169242E-02  1.0631369553980E+00
   115  1.1400000000000E+00  2.0936393524517E-02  1.0752855907971E+00
   116  1.1500000000000E+00 -1.8723493484672E-05  1.0869576603336E+00
   117  1.1600000000000E+00 -2.0373277457365E-02  1.0981326066154E+00
   118  1.1700000000000E+00 -4.0115320165266E-02  1.1087901180663E+00
   119  1.1800000000000E+00 -5.9234545221698E-02  1.1189101809468E+00
   120  1.1900000000000E+00 -7.7722292709346E-02  1.1284731327980E+00
   121  1.2000000000000E+00 -9.5571548902631E-02  1.1374597171732E+00
   122  1.2100000000000E+00 -1.1277694098889E-01  1.1458511395180E+00
   123  1.2200000000000E+00 -1.2933472677842E-01  1.1536291240444E+00
   124  1.2300000000000E+00 -1.4524277940025E-01  1.1607759714379E+00
   125  1.2400000000000E+00 -1.6050056699625E-01  1.1672746172293E+00
   126  1.2500000000000E+00 -1.7510912744213E-01  1.1731086906507E+00
   127  1.2600000000000E+00 -1.8907103814021E-01  1.1782625737913E+00
   128  1.2700000000000E+00 -2.0239038094464E-01  1.1827214608577E+00
   129  1.2800000000000E+00 -2.1507270229645E-01  1.1864714173395E+00
   130  1.2900000000000E+00 -2.2712496866157E-01  1.1894994388725E+00
   131  1.3000000000000E+00 -2.3855551738172E-01  1.1917935095866E+00
   132  1.3100000000000E+00 -2.4937400306389E-01  1.1933426597214E+00
   133  1.3200000000000E+00 -2.5959133965033E-01  1.1941370222849E+00
   134  1.3300000000000E+00 -2.6921963832703E-01  1.1941678885318E+00
   135  1.3400000000000E+00 -2.7827214144433E-01  1.1934277620279E+00
   136  1.3500000000000E+00 -2.8676315263912E-01  1.1919104110714E+00
   137  1.3600000000000E+00 -2.9470796336321E-01  1.1896109192340E+00
   138  1.3700000000000E+00 -3.0212277603789E-01  1.1865257337874E+00
   139  1.3800000000000E+00 -3.0902462406929E-01  1.1826527117779E+00
   140  1.3900000000000E+00 -3.1543128897377E-01  1.1779911635138E+00
   141  1.4000000000000E+00 -3.2136121487671E-01  1.1725418932282E+00
   142  1.4100000000000E+00 -3.2683342066182E-01  1.1663072366845E+00
   143  1.4200000000000E+00 -3.3186741006131E-01  1.1592910954927E+00
   144  1.4300000000000E+00 -3.3648307999044E-01  1.1514989679061E+00
   145  1.4400000000000E+00 -3.4070062744173E-01  1.1429379758746E+00
   146  1.4500000000000E+00 -3.4454045526668E-01  1.1336168881322E+00
   147  1.4600000000000E+00 -3.4802307718344E-01  1.1235461391029E+00
   148  1.4700000000000E+00 -3.5116902235982E-01  1.1127378434158E+00
   149  1.4800000000000E+00 -3.5399873993105E-01  1.1012058058227E+00
   150  1.4900000000000E+00 -3.5653250382068E-01  1.0889655263249E+00
   151  1.5000000000000E+00 -3.5879031824195E-01  1.0760342003160E+00
   152  1.5100000000000E+00 -3.6079182426419E-01  1.0624307135642E+00
   153  1.5200000000000E+00 -3.6255620783617E-01  1.0481756318591E+00
   154  1.5300000000000E+00 -3.6410210966405E-01  1.0332911851644E+00
   155  1.5400000000000E+00 -3.6544753734671E-01  1.0178012461229E+00
   156  1.5500000000000E+00 -3.6660978017510E-01  1.0017313027762E+00
   157  1.5600000000000E+00 -3.6760532700560E-01  9.8510842537036E-01
   158  1.5700000000000E+00 -3.6844978761872E-01  9.6796122713274E-01
   159  1.5800000000000E+00 -3.6915781797542E-01  9.5031981891862E-01
   160  1.5900000000000E+00 -3.6974304978257E-01  9.3221575764045E-01
   161  1.6000000000000E+00 -3.7021802477688E-01  9.1368198840721E-01
   162  1.6100000000000E+00 -3.7059413413352E-01  8.9475278031782E-01
   163  1.6200000000000E+00 -3.7088156340024E-01  8.7546365586857E-01
   164  1.6300000000000E+00 -3.7108924335152E-01  8.5585131395245E-01
   165  1.6400000000000E+00 -3.7122480714884E-01  8.3595354644661E-01
   166  1.6500000000000E+00 -3.7129455418310E-01  8.1580914840343E-01
   167  1.6600000000000E+00 -3.7130342096314E-01  7.9545782188134E-01
   168  1.6700000000000E+00 -3.7125495940045E-01  7.7494007347249E-01
   169  1.6800000000000E+00 -3.7115132282394E-01  7.5429710560750E-01
   170  1.6900000000000E+00 -3.7099326004030E-01  7.3357070174067E-01
   171  1.7000000000000E+00 -3.7078011773491E-01  7.1280310554426E-01
   172  1.7100000000000E+00 -3.7050985148507E-01  6.9203689426672E-01
   173  1.7200000000000E+00 -3.7017904563152E-01  6.7131484643709E-01
   174  1.7300000000000E+00 -3.6978294222618E-01  6.5067980412722E-01
   175  1.7400000000000E+00 -3.6931547924228E-01  6.3017453001379E-01
   176  1.7500000000000E+00 -3.6876933819951E-01  6.0984155951473E-01
   177  1.7600000000000E+00 -3.6813600131894E-01  5.8972304830820E-01
   178  1.7700000000000E+00 -3.6740581828254E-01  5.6986061557877E-01
   179  1.7800000000000E+00 -3.6656808262786E-01  5.5029518337264E-01
   180  1.7900000000000E+00 -3.6561111776154E-01  5.3106681248406E-01
   181  1.8000000000000E+00 -3.6452237252390E-01  5.1221453533700E-01
   182  1.8100000000000E+00 -3.6328852618254E-01  4.9377618637064E-01
   183  1.8200000000000E+00 -3.6189560267409E-01  4.7578823048369E-01
   184  1.8300000000000E+00 -3.6032909385041E-01  4.5828559014249E-01
   185  1.8400000000000E+00 -3.5857409141903E-01  4.4130147180934E-01
   186  1.8500000000000E+00 -3.5661542719591E-01  4.2486719240276E-01
   187  1.8600000000000E+00 -3.5443782121322E-01  4.0901200655909E-01
   188  1.8700000000000E+00 -3.5202603714423E-01  3.9376293552596E-01
   189  1.8800000000000E+00 -3.4936504442231E-01  3.7914459858236E-01
   190  1.8900000000000E+00 -3.4644018634113E-01  3.6517904794760E-01
   191  1.9000000000000E+00 -3.4323735332638E-01  3.5188560821396E-01
   192  1.9100000000000E+00 -3.3974316047229E-01  3.3928072141030E-01
   193  1.9200000000000E+00 -3.3594512832611E-01  3.2737779888607E-01
   194  1.9300000000000E+00 -3.3183186579477E-01  3.1618708128655E-01
   195  1.9400000000000E+00 -3.2739325393010E-01  3.0571550797779E-01
   196  1.9500000000000E+00 -3.2262062922541E-01  2.9596659737226E-01
   197  1.9600000000000E+00 -3.1750696492732E-01  2.8694033970247E-01
   198  1.9700000000000E+00 -3.1204704873085E-01  2.7863310389167E-01
   199  1.9800000000000E+00 -3.0623765508218E-01  2.7103756027847E-01
   200  1.9900000000000E+00 -3.0007771017026E-01  2.6414262106032E-01
   201  2.0000000000000E+00 -2.9356844752438E-01  2.5793340044449E-01
   202  2.0100000000000E+00 -2.8671355197884E-01  2.5239119661374E-01
   203  2.0200000000000E+00 -2.7951928959268E-01  2.4749349774535E-01
   204  2.0300000000000E+00 -2.7199462093700E-01  2.4321401445653E-01
   205  2.0400000000000E+00 -2.6415129496964E-01  2.3952274119713E-01
   206  2.0500000000000E+00 -2.5600392054044E-01  2.3638604924633E-01
   207  2.0600000000000E+00 -2.4757001234770E-01  2.3376681414276E-01
   208  2.0700000000000E+00 -2.3887000797022E-01  2.3162458052980E-01
   209  2.0800000000000E+00 -2.2992725237631E-01  2.2991576757221E-01
   210  2.0900000000000E+00 -2.2076794607796E-01  2.2859391828319E-01
   211  2.1000000000000E+00 -2.1142105286940E-01  2.2760999628177E-01
   212  2.1100000000000E+00 -2.0191816283821E-01  2.2691273369892E-01
   213  2.1200000000000E+00 -1.9229330607129E-01  2.2644903416274E-01
   214  2.1300000000000E+00 -1.8258271222166E-01  2.2616443499782E-01
   215  2.1400000000000E+00 -1.7282451080650E-01  2.2600363301144E-01
   216  2.1500000000000E+00 -1.6305836683765E-01  2.2591107845627E-01
   217  2.1600000000000E+00 -1.5332504606704E-01  2.2583164201727E-01
   218  2.1700000000000E+00 -1.4366590381154E-01  2.2571135992932E-01
   219  2.1800000000000E+00 -1.3412229100770E-01  2.2549826258847E-01
   220  2.1900000000000E+00 -1.2473487077437E-01  2.2514329232520E-01
   221  2.2000000000000E+00 -1.1554283847499E-01  2.2460131624322E-01
   222  2.2100000000000E+00 -1.0658303748845E-01  2.2383224088948E-01
   223  2.2200000000000E+00 -9.7888963084923E-02  2.2280223503220E-01
   224  2.2300000000000E+00 -8.9489632616333E-02  2.2148508667472E-01
   225  2.2400000000000E+00 -8.1408492679578E-02  2.1986344012595E-01
   226  2.2500000000000E+00 -7.3661521899560E-02  2.1793114888550E-01
   227  2.2600000000000E+00 -6.6257006394789E-02  2.1569305084535E-01
   228  2.2700000000000E+00 -5.9198163876828E-02  2.1316047348995E-01
   229  2.2800000000000E+00 -5.2486645732234E-02  2.1034580589712E-01
   230  2.2900000000000E+00 -4.6123387396292E-02  2.0726119887858E-01
   231  2.3000000000000E+00 -4.0108242159627E-02  2.0391915905833E-01
   232  2.3100000000000E+00 -3.4440107936488E-02  2.0033237171465E-01
   233  2.3200000000000E+00 -2.9116939594381E-02  1.9651370858647E-01
   234  2.3300000000000E+00 -2.4135768962765E-02  1.9247622528196E-01
   235  2.3400000000000E+00 -1.9492728772126E-02  1.8823315507440E-01
   236  2.3500000000000E+00 -1.5183079332106E-02  1.8379790085833E-01
   237  2.3600000000000E+00 -1.1201237729896E-02  1.7918402553277E-01
   238  2.3700000000000E+00 -7.5408094914225E-03  1.7440524081992E-01
   239  2.3800000000000E+00 -4.1946226372181E-03  1.6947539453594E-01
   240  2.3900000000000E+00 -1.1547640584814E-03  1.6440845633554E-01
   241  2.4000000000000E+00  1.5873818783674E-03  1.5921850196499E-01
   242  2.4100000000000E+00  4.0410925970239E-03  1.5391969606427E-01
   243  2.4200000000000E+00  6.2162645537808E-03  1.4852627356537E-01
   244  2.4300000000000E+00  8.1233685762823E-03  1.4305251974371E-01
   245  2.4400000000000E+00  9.7734034275377E-03  1.3751274898761E-01
   246  2.4500000000000E+00  1.1177847731030E-02  1.3192128235626E-01
   247  2.4600000000000E+00  1.2348610400826E-02  1.2629242400353E-01
   248  2.4700000000000E+00  1.3297979732024E-02  1.2064043655429E-01
   249  2.4800000000000E+00  1.4038571311240E-02  1.1497951552416E-01
   250  2.4900000000000E+00  1.4583274912165E-02  1.0932376287764E-01
   251  2.5000000000000E+00  1.4945200552163E-02  1.0368715982985E-01
   252  2.5100000000000E+00  1.5137623887656E-02  9.8083538998428E-02
   253  2.5200000000000E+00  1.5173931129753E-02  9.2526556015919E-02
   254  2.5300000000000E+00  1.5067563669910E-02  8.7029660720571E-02
   255  2.5400000000000E+00  1.4831962604754E-02  8.1606068044026E-02
   256  2.5500000000000E+00  1.4480513352395E-02  7.6268728716712E-02
   257  2.5600000000000E+00  1.4026490556046E-02  7.1030299916876E-02
   258  2.5700000000000E+00  1.3483003468647E-02  6.5903115987847E-02
   259  2.5800000000000E+00  1.2862942014939E-02  6.0899159350609E-02
   260  2.5900000000000E+00  1.2178923724766E-02  5.6030031739285E-02
   261  2.6000000000000E+00  1.1443241729189E-02  5.1306925885446E-02
   262  2.6100000000000E+00  1.0667814012217E-02  4.6740597778921E-02
   263  2.6200000000000E+00  9.8641350504725E-03  4.2341340483148E-02
   264  2.6300000000000E+00  9.0432223450561E-03  3.8118952748796E-02
   265  2.6400000000000E+00  8.2155824224977E-03  3.4082724335139E-02
   266  2.6500000000000E+00  7.3911607980183E-03  3.0241405667368E-02
   267  2.6600000000000E+00  6.5792893638480E-03  2.6603178434529E-02
   268  2.6700000000000E+00  5.7885473202817E-03  2.3175539429989E-02
   269  2.6800000000000E+00  5.0264395013645E-03  1.9965014749085E-02
   270  2.6900000000000E+00  4.3000866419962E-03  1.6977796366492E-02
   271  2.7000000000000E+00  3.6163518842492E-03  1.4219872824443E-02
   272  2.7100000000000E+00  2.9812230853483E-03  1.1696497975617E-02
   273  2.7200000000000E+00  2.3998346004218E-03  9.4122176008735E-03
   274  2.7300000000000E+00  1.8764865839194E-03  7.3708910772863E-03
   275  2.7400000000000E+00  1.4146069478058E-03  5.5756645602303E-03
   276  2.7500000000000E+00  1.0167418834446E-03  4.0289674313798E-03
   277  2.7600000000000E+00  6.8463483086140E-04  2.7329123575014E-03
   278  2.7700000000000E+00  4.1887726740262E-04  1.6877881678183E-03
   279  2.7800000000000E+00  2.1822539852982E-04  8.8919521391031E-04
   280  2.7900000000000E+00  8.4842637897429E-05  3.5052189831840E-04
   281  2.8000000000000E+00  1.7689258738604E-05  7.4351836923693E-05
   282  2.8100000000000E+00 -3.1005750252959E-06 -1.3135041241149E-05
   283  2.8200000000000E+00 -1.8511637798331E-06 -7.9124520954602E-06
   284  2.83  0.  0.
   285  2.84  0.  0.
   286  2.85 -0. -0.
   287  2.86 -0.  0.
   288  2.87 -0.  0.
   289  2.88  0.  0.
   290  2.89  0.  0.
   291  2.90  0.  0.
   292  2.91  0.  0.
   293  2.92  0.  0.
   294  2.93  0.  0.
   295  2.94  0.  0.
   296  2.95  0.  0.
   297  2.96  0.  0.
   298  2.97  0.  0.
   299  2.98  0.  0.
   300  2.99  0.  0.
   301  3.00  0.  0.
   302  3.01  0.  0.
   303  3.02  0.  0.
   304  3.03  0.  0.
   305  3.04  0.  0.
   306  3.05  0.  0.
   307  3.06  0.  0.
   308  3.07  0.  0.
   309  3.08  0.  0.
   310  3.09  0.  0.
   311  3.10  0.  0.
   312  3.11  0.  0.
   313  3.12  0.  0.
   314  3.13  0.  0.
   315  3.14  0.  0.
   316  3.15  0.  0.
   317  3.16  0.  0.
   318  3.17  0.  0.
   319  3.18  0.  0.
   320  3.19  0.  0.
   321  3.20  0.  0.
   322  3.21  0.  0.
   323  3.22  0.  0.
   324  3.23  0.  0.
   325  3.24  0.  0.
   326  3.25  0.  0.
   327  3.26  0.  0.
   328  3.27  0.  0.
   329  3.28  0.  0.
   330  3.29  0.  0.
   331  3.30  0.  0.
   332  3.31  0.  0.
   333  3.32  0.  0.
   334  3.33  0.  0.
   335  3.34  0.  0.
   336  3.35  0.  0.
   337  3.36  0.  0.
   338  3.37  0.  0.
   339  3.38  0.  0.
   340  3.39  0.  0.
   341  3.40  0.  0.
   342  3.41  0.  0.
   343  3.42  0.  0.
   344  3.43  0.  0.
   345  3.44  0.  0.
   346  3.45  0.  0.
   347  3.46  0.  0.
   348  3.47  0.  0.
   349  3.48  0.  0.
   350  3.49  0.  0.
   351  3.50  0.  0.
   352  3.51  0.  0.
   353  3.52  0.  0.
   354  3.53  0.  0.
   355  3.54  0.  0.
   356  3.55  0.  0.
   357  3.56  0.  0.
   358  3.57  0.  0.
   359  3.58  0.  0.
   360  3.59  0.  0.
   361  3.60  0.  0.
   362  3.61  0.  0.
   363  3.62  0.  0.
   364  3.63  0.  0.
   365  3.64  0.  0.
   366  3.65  0.  0.
   367  3.66  0.  0.
   368  3.67  0.  0.
   369  3.68  0.  0.
   370  3.69  0.  0.
   371  3.70  0.  0.
   372  3.71  0.  0.
   373  3.72  0.  0.
   374  3.73  0.  0.
   375  3.74  0.  0.
   376  3.75  0.  0.
   377  3.76  0.  0.
   378  3.77  0.  0.
   379  3.78  0.  0.
   380  3.79  0.  0.
   381  3.80  0.  0.
   382  3.81  0.  0.
   383  3.82  0.  0.
   384  3.83  0.  0.
   385  3.84  0.  0.
   386  3.85  0.  0.
   387  3.86  0.  0.
   388  3.87  0.  0.
   389  3.88  0.  0.
   390  3.89  0.  0.
   391  3.90  0.  0.
   392  3.91  0.  0.
   393  3.92  0.  0.
   394  3.93  0.  0.
   395  3.94  0.  0.
   396  3.95  0.  0.
   397  3.96  0.  0.
   398  3.97  0.  0.
   399  3.98  0.  0.
   400  3.99  0.  0.
   401  4.00  0.  0.
   402  4.01  0.  0.
   403  4.02  0.  0.
   404  4.03  0.  0.
   405  4.04  0.  0.
   406  4.05  0.  0.
   407  4.06  0.  0.
   408  4.07  0.  0.
   409  4.08  0.  0.
   410  4.09  0.  0.
   411  4.10  0.  0.
   412  4.11  0.  0.
   413  4.12  0.  0.
   414  4.13  0.  0.
   415  4.14  0.  0.
   416  4.15  0.  0.
   417  4.16  0.  0.
   418  4.17  0.  0.
   419  4.18  0.  0.
   420  4.19  0.  0.
   421  4.20  0.  0.
   422  4.21  0.  0.
   423  4.22  0.  0.
   424  4.23  0.  0.
   425  4.24  0.  0.
   426  4.25  0.  0.
   427  4.26  0.  0.
   428  4.27  0.  0.
   429  4.28  0.  0.
   430  4.29  0.  0.
   431  4.30  0.  0.
   432  4.31  0.  0.
   433  4.32  0.  0.
   434  4.33  0.  0.
   435  4.34  0.  0.
   436  4.35  0.  0.
   437  4.36  0.  0.
   438  4.37  0.  0.
   439  4.38  0.  0.
   440  4.39  0.  0.
   441  4.40  0.  0.
   442  4.41  0.  0.
   443  4.42  0.  0.
   444  4.43  0.  0.
   445  4.44  0.  0.
   446  4.45  0.  0.
   447  4.46  0.  0.
   448  4.47  0.  0.
   449  4.48  0.  0.
   450  4.49  0.  0.
   451  4.50  0.  0.
   452  4.51  0.  0.
   453  4.52  0.  0.
   454  4.53  0.  0.
   455  4.54  0.  0.
   456  4.55  0.  0.
   457  4.56  0.  0.
   458  4.57  0.  0.
   459  4.58  0.  0.
   460  4.59  0.  0.
   461  4.60  0.  0.
   462  4.61  0.  0.
   463  4.62  0.  0.
   464  4.63  0.  0.
   465  4.64  0.  0.
   466  4.65  0.  0.
   467  4.66  0.  0.
   468  4.67  0.  0.
   469  4.68  0.  0.
   470  4.69  0.  0.
   471  4.70  0.  0.
   472  4.71  0.  0.
   473  4.72  0.  0.
   474  4.73  0.  0.
   475  4.74  0.  0.
   476  4.75  0.  0.
   477  4.76  0.  0.
   478  4.77  0.  0.
   479  4.78  0.  0.
   480  4.79  0.  0.
   481  4.80  0.  0.
   482  4.81  0.  0.
   483  4.82  0.  0.
   484  4.83  0.  0.
   485  4.84  0.  0.
   486  4.85  0.  0.
   487  4.86  0.  0.
   488  4.87  0.  0.
   489  4.88  0.  0.
   490  4.89  0.  0.
   491  4.90  0.  0.
   492  4.91  0.  0.
   493  4.92  0.  0.
   494  4.93  0.  0.
   495  4.94  0.  0.
   496  4.95  0.  0.
   497  4.96  0.  0.
   498  4.97  0.  0.
   499  4.98  0.  0.
   500  4.99  0.  0.
   501  5.00  0.  0.
   502  5.01  0.  0.
   503  5.02  0.  0.
   504  5.03  0.  0.
   505  5.04  0.  0.
   506  5.05  0.  0.
   507  5.06  0.  0.
   508  5.07  0.  0.
   509  5.08  0.  0.
   510  5.09  0.  0.
   511  5.10  0.  0.
   512  5.11  0.  0.
   513  5.12  0.  0.
   514  5.13  0.  0.
   515  5.14  0.  0.
   516  5.15  0.  0.
   517  5.16  0.  0.
   518  5.17  0.  0.
   519  5.18  0.  0.
   520  5.19  0.  0.
   521  5.20  0.  0.
   522  5.21  0.  0.
   523  5.22  0.  0.
   524  5.23  0.  0.
   525  5.24  0.  0.
   526  5.25  0.  0.
   527  5.26  0.  0.
   528  5.27  0.  0.
   529  5.28  0.  0.
   530  5.29  0.  0.
   531  5.30  0.  0.
   532  5.31  0.  0.
   533  5.32  0.  0.
   534  5.33  0.  0.
   535  5.34  0.  0.
   536  5.35  0.  0.
   537  5.36  0.  0.
   538  5.37  0.  0.
   539  5.38  0.  0.
   540  5.39  0.  0.
   541  5.40  0.  0.
   542  5.41  0.  0.
   543  5.42  0.  0.
   544  5.43  0.  0.
   545  5.44  0.  0.
   546  5.45  0.  0.
   547  5.46  0.  0.
   548  5.47  0.  0.
   549  5.48  0.  0.
   550  5.49  0.  0.
   551  5.50  0.  0.
   552  5.51  0.  0.
   553  5.52  0.  0.
   554  5.53  0.  0.
   555  5.54  0.  0.
   556  5.55  0.  0.
   557  5.56  0.  0.
   558  5.57  0.  0.
   559  5.58  0.  0.
   560  5.59  0.  0.
   561  5.60  0.  0.
   562  5.61  0.  0.
   563  5.62  0.  0.
   564  5.63  0.  0.
   565  5.64  0.  0.
   566  5.65  0.  0.
   567  5.66  0.  0.
   568  5.67  0.  0.
   569  5.68  0.  0.
   570  5.69  0.  0.
   571  5.70  0.  0.
   572  5.71  0.  0.
   573  5.72  0.  0.
   574  5.73  0.  0.
   575  5.74  0.  0.
   576  5.75  0.  0.
   577  5.76  0.  0.
   578  5.77  0.  0.
   579  5.78  0.  0.
   580  5.79  0.  0.
   581  5.80  0.  0.
   582  5.81  0.  0.
   583  5.82  0.  0.
   584  5.83  0.  0.
   585  5.84  0.  0.
   586  5.85  0.  0.
   587  5.86  0.  0.
   588  5.87  0.  0.
   589  5.88  0.  0.
   590  5.89  0.  0.
   591  5.90  0.  0.
   592  5.91  0.  0.
   593  5.92  0.  0.
   594  5.93  0.  0.
   595  5.94  0.  0.
   596  5.95  0.  0.
   597  5.96  0.  0.
   598  5.97  0.  0.
   599  5.98  0.  0.
   600  5.99  0.  0.
   1                         1.5073042200439E+00 -5.3115464800588E-01
     1  0.0000000000000E+00 -2.4128238296228E-10 -3.3911391923713E-11
     2  1.0000000000000E-02  4.6458756858374E-04 -6.6915000204773E-05
     3  2.0000000000000E-02  1.8588453613396E-03 -2.6714555886324E-04
     4  3.0000000000000E-02  4.1842452909444E-03 -5.9915088992925E-04
     5  4.0000000000000E-02  7.4431961798838E-03 -1.0603714646075E-03
     6  5.0000000000000E-02  1.1638977663406E-02 -1.6472416201173E-03
     7  6.0000000000000E-02  1.6775648551672E-02 -2.3552070860937E-03
     8  7.0000000000000E-02  2.2857930540071E-02 -3.1787473040623E-03
     9  8.0000000000000E-02  2.9891068397934E-02 -4.1114023815137E-03
    10  9.0000000000000E-02  3.7880667997659E-02 -5.1458044895889E-03
    11  1.0000000000000E-01  4.6832513766568E-02 -6.2737134823870E-03
    12  1.1000000000000E-01  5.6752367351140E-02 -7.4860564867317E-03
    13  1.2000000000000E-01  6.7645749475139E-02 -8.7729711841232E-03
    14  1.3000000000000E-01  7.9517707148955E-02 -1.0123852481772E-02
    15  1.4000000000000E-01  9.2372568544597E-02 -1.1527402247233E-02
    16  1.5000000000000E-01  1.0621368798887E-01 -1.2971681761484E-02
    17  1.6000000000000E-01  1.2104318364422E-01 -1.4444166528445E-02
    18  1.7000000000000E-01  1.3686167054246E-01 -1.5931803064968E-02
    19  1.8000000000000E-01  1.5366799170908E-01 -1.7421067284631E-02
    20  1.9000000000000E-01  1.7145895016571E-01 -1.8898024080877E-02
    21  2.0000000000000E-01  1.9022904462373E-01 -2.0348387710738E-02
    22  2.1000000000000E-01  2.0997021168400E-01 -2.1757582579189E-02
    23  2.2000000000000E-01  2.3067157733457E-01 -2.3110804026306E-02
    24  2.3000000000000E-01  2.5231922049203E-01 -2.4393078724811E-02
    25  2.4000000000000E-01  2.7489595126099E-01 -2.5589324304201E-02
    26  2.5000000000000E-01  2.9838110649249E-01 -2.6684407829390E-02
    27  2.6000000000000E-01  3.2275036510486E-01 -2.7663202776638E-02
    28  2.7000000000000E-01  3.4797558549219E-01 -2.8510644167215E-02
    29  2.8000000000000E-01  3.7402466718545E-01 -2.9211781539804E-02
    30  2.9000000000000E-01  4.0086143875207E-01 -2.9751829465733E-02
    31  3.0000000000000E-01  4.2844557372180E-01 -3.0116215336623E-02
    32  3.1000000000000E-01  4.5673253611206E-01 -3.0290624181810E-02
    33  3.2000000000000E-01  4.8567355689602E-01 -3.0261040302519E-02
    34  3.3000000000000E-01  5.1521564251314E-01 -3.0013785541174E-02
    35  3.4000000000000E-01  5.4530161626706E-01 -2.9535554037092E-02
    36  3.5000000000000E-01  5.7587019319139E-01 -2.8813443353745E-02
    37  3.6000000000000E-01  6.0685608869153E-01 -2.7834981897679E-02
    38  3.7000000000000E-01  6.3819016099392E-01 -2.6588152584633E-02
    39  3.8000000000000E-01  6.6979958715338E-01 -2.5061412744057E-02
    40  3.9000000000000E-01  7.0160807208808E-01 -2.3243710288950E-02
    41  4.0000000000000E-01  7.3353608983198E-01 -2.1124496213223E-02
    42  4.1000000000000E-01  7.6550115591828E-01 -1.8693733513432E-02
    43  4.2000000000000E-01  7.9741812953748E-01 -1.5941902665426E-02