Ta    ONCVPSP-4.0.1  r_core=   2.32674   2.19164   2.36887   2.65402
     73.0000     13.0000      230118    zatom,zion,pspd
     8       2   3     4   600     0    pspcod,pspxc,lmax,lloc,mmax,r2well
  5.99000000  5.00000000  0.00000000    rchrg fchrg qchrg
     2     2     2     2     0    nproj
     1     1           extension_switch
   0                         2.2866894480179E+00 -6.8960591492551E-01
     1  0.0000000000000E+00 -1.6497359034418E-12  8.4374174313950E-13
     2  1.0000000000000E-02  5.4243334467007E-02  1.2321840043986E-02
     3  2.0000000000000E-02  1.0839779459576E-01  2.4647569514345E-02
     4  3.0000000000000E-02  1.6237467382508E-01  3.6981060556388E-02
     5  4.0000000000000E-02  2.1608560082587E-01  4.9326150804577E-02
     6  5.0000000000000E-02  2.6944270631227E-01  6.1686626255084E-02
     7  6.0000000000000E-02  3.2235878888819E-01  7.4066204291329E-02
     8  7.0000000000000E-02  3.7474747960951E-01  8.6468516912481E-02
     9  8.0000000000000E-02  4.2652340494395E-01  9.8897094214087E-02
    10  9.0000000000000E-02  4.7760234781271E-01  1.1135534816890E-01
    11  1.0000000000000E-01  5.2790140640039E-01  1.2384655675479E-01
    12  1.1000000000000E-01  5.7733915042283E-01  1.3637384847508E-01
    13  1.2000000000000E-01  6.2583577454564E-01  1.4894018731522E-01
    14  1.3000000000000E-01  6.7331324865021E-01  1.6154835817768E-01
    15  1.4000000000000E-01  7.1969546464836E-01  1.7420095283520E-01
    16  1.5000000000000E-01  7.6490837955150E-01  1.8690035644031E-01
    17  1.6000000000000E-01  8.0888015450543E-01  1.9964873462694E-01
    18  1.7000000000000E-01  8.5154128950793E-01  2.1244802123735E-01
    19  1.8000000000000E-01  8.9282475353245E-01  2.2529990670538E-01
    20  1.9000000000000E-01  9.3266610978820E-01  2.3820582712433E-01
    21  2.0000000000000E-01  9.7100363585436E-01  2.5116695402515E-01
    22  2.1000000000000E-01  1.0077784384340E+00  2.6418418488788E-01
    23  2.2000000000000E-01  1.0429345624825E+00  2.7725813440664E-01
    24  2.3000000000000E-01  1.0764190944725E+00  2.9038912652542E-01
    25  2.4000000000000E-01  1.1081822595710E+00  3.0357718725942E-01
    26  2.5000000000000E-01  1.1381775125094E+00  3.1682203831357E-01
    27  2.6000000000000E-01  1.1663616219432E+00  3.3012309150720E-01
    28  2.7000000000000E-01  1.1926947481056E+00  3.4347944401102E-01
    29  2.8000000000000E-01  1.2171405135748E+00  3.5688987439981E-01
    30  2.9000000000000E-01  1.2396660669845E+00  3.7035283952138E-01
    31  3.0000000000000E-01  1.2602421395230E+00  3.8386647218010E-01
    32  3.1000000000000E-01  1.2788430940783E+00  3.9742857963018E-01
    33  3.2000000000000E-01  1.2954469669022E+00  4.1103664287212E-01
    34  3.3000000000000E-01  1.3100355016815E+00  4.2468781674261E-01
    35  3.4000000000000E-01  1.3225941759195E+00  4.3837893078674E-01
    36  3.5000000000000E-01  1.3331122195465E+00  4.5210649089848E-01
    37  3.6000000000000E-01  1.3415826256970E+00  4.6586668171409E-01
    38  3.7000000000000E-01  1.3480021536053E+00  4.7965536974076E-01
    39  3.8000000000000E-01  1.3523713235917E+00  4.9346810720143E-01
    40  3.9000000000000E-01  1.3546944041265E+00  5.0730013657506E-01
    41  4.0000000000000E-01  1.3549793909794E+00  5.2114639581007E-01
    42  4.1000000000000E-01  1.3532379784800E+00  5.3500152418800E-01
    43  4.2000000000000E-01  1.3494855229334E+00  5.4885986881259E-01
    44  4.3000000000000E-01  1.3437409982543E+00  5.6271549169934E-01
    45  4.4000000000000E-01  1.3360269439016E+00  5.7656217743932E-01
    46  4.5000000000000E-01  1.3263694052173E+00  5.9039344141078E-01
    47  4.6000000000000E-01  1.3147978662877E+00  6.0420253851155E-01
    48  4.7000000000000E-01  1.3013451754710E+00  6.1798247238483E-01
    49  4.8000000000000E-01  1.2860474637489E+00  6.3172600511130E-01
    50  4.9000000000000E-01  1.2689440560809E+00  6.4542566733987E-01
    51  5.0000000000000E-01  1.2500773759615E+00  6.5907376883021E-01
    52  5.1000000000000E-01  1.2294928433940E+00  6.7266240938002E-01
    53  5.2000000000000E-01  1.2072387665169E+00  6.8618349011058E-01
    54  5.3000000000000E-01  1.1833662271359E+00  6.9962872508481E-01
    55  5.4000000000000E-01  1.1579289604303E+00  7.1298965323244E-01
    56  5.5000000000000E-01  1.1309832291210E+00  7.2625765055760E-01
    57  5.6000000000000E-01  1.1025876924027E+00  7.3942394260534E-01
    58  5.7000000000000E-01  1.0728032699586E+00  7.5247961716383E-01
    59  5.8000000000000E-01  1.0416930013906E+00  7.6541563718043E-01
    60  5.9000000000000E-01  1.0093219014109E+00  7.7822285387050E-01
    61  6.0000000000000E-01  9.7575681115585E-01  7.9089201999884E-01
    62  6.1000000000000E-01  9.4106624599180E-01  8.0341380331472E-01
    63  6.2000000000000E-01  9.0532024019711E-01  8.1577880012240E-01
    64  6.3000000000000E-01  8.6859018891131E-01  8.2797754897008E-01
    65  6.4000000000000E-01  8.3094868775277E-01  8.4000054444106E-01
    66  6.5000000000000E-01  7.9246937051323E-01  8.5183825103214E-01
    67  6.6000000000000E-01  7.5322674534389E-01  8.6348111710478E-01
    68  6.7000000000000E-01  7.1329602985270E-01  8.7491958889570E-01
    69  6.8000000000000E-01  6.7275298553620E-01  8.8614412457430E-01
    70  6.9000000000000E-01  6.3167375197182E-01  8.9714520833492E-01
    71  7.0000000000000E-01  5.9013468119732E-01  9.0791336451263E-01
    72  7.1000000000000E-01  5.4821217270386E-01  9.1843917171186E-01
    73  7.2000000000000E-01  5.0598250946733E-01  9.2871327693754E-01
    74  7.3000000000000E-01  4.6352169543966E-01  9.3872640971872E-01
    75  7.4000000000000E-01  4.2090529491703E-01  9.4846939621506E-01
    76  7.5000000000000E-01  3.7820827419610E-01  9.5793317329658E-01
    77  7.6000000000000E-01  3.3550484592238E-01  9.6710880258712E-01
    78  7.7000000000000E-01  2.9286831652554E-01  9.7598748446181E-01
    79  7.8000000000000E-01  2.5037093712737E-01  9.8456057198888E-01
    80  7.9000000000000E-01  2.0808375829604E-01  9.9281958480551E-01
    81  8.0000000000000E-01  1.6607648900829E-01  1.0007562229173E+00
    82  8.1000000000000E-01  1.2441736016723E-01  1.0083623804102E+00
    83  8.2000000000000E-01  8.3172993008428E-02  1.0156301590635E+00
    84  8.3000000000000E-01  4.2408272711246E-02  1.0225518818509E+00
    85  8.4000000000000E-01  2.1862275147995E-03  1.0291201063170E+00
    86  8.5000000000000E-01 -3.7432086379725E-02  1.0353276378155E+00
    87  8.6000000000000E-01 -7.6387693857931E-02  1.0411675425929E+00
    88  8.7000000000000E-01 -1.1462380364958E-01  1.0466331607029E+00
    89  8.8000000000000E-01 -1.5208590457250E-01  1.0517181187339E+00
    90  8.9000000000000E-01 -1.8872185506220E-01  1.0564163423315E+00
    91  9.0000000000000E-01 -2.2448196580861E-01  1.0607220684968E+00
    92  9.1000000000000E-01 -2.5931907534351E-01  1.0646298576400E+00
    93  9.2000000000000E-01 -2.9318861844527E-01  1.0681346053681E+00
    94  9.3000000000000E-01 -3.2604868725075E-01  1.0712315539831E+00
    95  9.4000000000000E-01 -3.5786008498744E-01  1.0739163036683E+00
    96  9.5000000000000E-01 -3.8858637226293E-01  1.0761848233367E+00
    97  9.6000000000000E-01 -4.1819390587198E-01  1.0780334611161E+00
    98  9.7000000000000E-01 -4.4665187010552E-01  1.0794589544439E+00
    99  9.8000000000000E-01 -4.7393230056897E-01  1.0804584397444E+00
   100  9.9000000000000E-01 -5.0001010054089E-01  1.0810294616596E+00
   101  1.0000000000000E+00 -5.2486304992561E-01  1.0811699818042E+00
   102  1.0100000000000E+00 -5.4847180687606E-01  1.0808783870163E+00
   103  1.0200000000000E+00 -5.7081990218515E-01  1.0801534970719E+00
   104  1.0300000000000E+00 -5.9189372656528E-01  1.0789945718340E+00
   105  1.0400000000000E+00 -6.1168251095634E-01  1.0774013178057E+00
   106  1.0500000000000E+00 -6.3017830002272E-01  1.0753738940564E+00
   107  1.0600000000000E+00 -6.4737591901869E-01  1.0729129174901E+00
   108  1.0700000000000E+00 -6.6327293422016E-01  1.0700194674274E+00
   109  1.0800000000000E+00 -6.7786960713778E-01  1.0666950894703E+00
   110  1.0900000000000E+00 -6.9116884274303E-01  1.0629417986219E+00
   111  1.1000000000000E+00 -7.0317613195382E-01  1.0587620816322E+00
   112  1.1100000000000E+00 -7.1389948864041E-01  1.0541588985444E+00
   113  1.1200000000000E+00 -7.2334938142549E-01  1.0491356834157E+00
   114  1.1300000000000E+00 -7.3153866056376E-01  1.0436963441884E+00
   115  1.1400000000000E+00 -7.3848248019719E-01  1.0378452616897E+00
   116  1.1500000000000E+00 -7.4419821629106E-01  1.0315872877390E+00
   117  1.1600000000000E+00 -7.4870538056415E-01  1.0249277423448E+00
   118  1.1700000000000E+00 -7.5202553073312E-01  1.0178724099760E+00
   119  1.1800000000000E+00 -7.5418217739627E-01  1.0104275348912E+00
   120  1.1900000000000E+00 -7.5520068788650E-01  1.0025998155187E+00
   121  1.2000000000000E+00 -7.5510818742561E-01  9.9439639787516E-01
   122  1.2100000000000E+00 -7.5393345791407E-01  9.8582486801969E-01
   123  1.2200000000000E+00 -7.5170683469048E-01  9.7689324354020E-01
   124  1.2300000000000E+00 -7.4846010159418E-01  9.6760996407230E-01
   125  1.2400000000000E+00 -7.4422638466241E-01  9.5798388085500E-01
   126  1.2500000000000E+00 -7.3904004478995E-01  9.4802424533010E-01
   127  1.2600000000000E+00 -7.3293656967519E-01  9.3774069679601E-01
   128  1.2700000000000E+00 -7.2595246537077E-01  9.2714324912983E-01
   129  1.2800000000000E+00 -7.1812514775084E-01  9.1624227659521E-01
   130  1.2900000000000E+00 -7.0949283419912E-01  9.0504849875716E-01
   131  1.3000000000000E+00 -7.0009443581417E-01  8.9357296452811E-01
   132  1.3100000000000E+00 -6.8996945041860E-01  8.8182703537340E-01
   133  1.3200000000000E+00 -6.7915785664919E-01  8.6982236770776E-01
   134  1.3300000000000E+00 -6.6770000939423E-01  8.5757089451758E-01
   135  1.3400000000000E+00 -6.5563653683291E-01  8.4508480624749E-01
   136  1.3500000000000E+00 -6.4300823931979E-01  8.3237653099265E-01
   137  1.3600000000000E+00 -6.2985599034475E-01  8.1945871404163E-01
   138  1.3700000000000E+00 -6.1622063978594E-01  8.0634419681767E-01
   139  1.3800000000000E+00 -6.0214291966021E-01  7.9304599526894E-01
   140  1.3900000000000E+00 -5.8766335256148E-01  7.7957727776139E-01
   141  1.4000000000000E+00 -5.7282216296399E-01  7.6595134253003E-01
   142  1.4100000000000E+00 -5.5765919155323E-01  7.5218159474723E-01
   143  1.4200000000000E+00 -5.4221381273329E-01  7.3828152326847E-01
   144  1.4300000000000E+00 -5.2652485544519E-01  7.2426467711816E-01
   145  1.4400000000000E+00 -5.1063052741657E-01  7.1014464177969E-01
   146  1.4500000000000E+00 -4.9456834294925E-01  6.9593501535565E-01
   147  1.4600000000000E+00 -4.7837505433710E-01  6.8164938466497E-01
   148  1.4700000000000E+00 -4.6208658699296E-01  6.6730130134510E-01
   149  1.4800000000000E+00 -4.4573797835019E-01  6.5290425802790E-01
   150  1.4900000000000E+00 -4.2936332059087E-01  6.3847166465829E-01
   151  1.5000000000000E+00 -4.1299570724009E-01  6.2401682502492E-01
   152  1.5100000000000E+00 -3.9666718365352E-01  6.0955291357209E-01
   153  1.5200000000000E+00 -3.8040870141292E-01  5.9509295256166E-01
   154  1.5300000000000E+00 -3.6425007663339E-01  5.8064978965294E-01
   155  1.5400000000000E+00 -3.4821995217458E-01  5.6623607596776E-01
   156  1.5500000000000E+00 -3.3234576373758E-01  5.5186424470652E-01
   157  1.5600000000000E+00 -3.1665370981955E-01  5.3754649037965E-01
   158  1.5700000000000E+00 -3.0116872548819E-01  5.2329474871703E-01
   159  1.5800000000000E+00 -2.8591445992950E-01  5.0912067731585E-01
   160  1.5900000000000E+00 -2.7091325771381E-01  4.9503563708536E-01
   161  1.6000000000000E+00 -2.5618614371721E-01  4.8105067454403E-01
   162  1.6100000000000E+00 -2.4175281162850E-01  4.6717650502223E-01
   163  1.6200000000000E+00 -2.2763161596468E-01  4.5342349682045E-01
   164  1.6300000000000E+00 -2.1383956751229E-01  4.3980165636978E-01
   165  1.6400000000000E+00 -2.0039233210619E-01  4.2632061443833E-01
   166  1.6500000000000E+00 -1.8730423265213E-01  4.1298961342330E-01
   167  1.6600000000000E+00 -1.7458825429537E-01  3.9981749576512E-01
   168  1.6700000000000E+00 -1.6225605263315E-01  3.8681269351596E-01
   169  1.6800000000000E+00 -1.5031796486552E-01  3.7398321909118E-01
   170  1.6900000000000E+00 -1.3878302377602E-01  3.6133665722798E-01
   171  1.7000000000000E+00 -1.2765897443081E-01  3.4888015817161E-01
   172  1.7100000000000E+00 -1.1695229348287E-01  3.3662043210510E-01
   173  1.7200000000000E+00 -1.0666821096590E-01  3.2456374483433E-01
   174  1.7300000000000E+00 -9.6810734461242E-02  3.1271591473586E-01
   175  1.7400000000000E+00 -8.7382675519682E-02  3.0108231097071E-01
   176  1.7500000000000E+00 -7.8385678219591E-02  2.8966785296293E-01
   177  1.7600000000000E+00 -6.9820249741918E-02  2.7847701113762E-01
   178  1.7700000000000E+00 -6.1685792842463E-02  2.6751380890864E-01
   179  1.7800000000000E+00 -5.3980640101708E-02  2.5678182590232E-01
   180  1.7900000000000E+00 -4.6702089832616E-02  2.4628420239913E-01
   181  1.8000000000000E+00 -3.9846443527107E-02  2.3602364497164E-01
   182  1.8100000000000E+00 -3.3409044722391E-02  2.2600243329269E-01
   183  1.8200000000000E+00 -2.7384319168898E-02  2.1622242808444E-01
   184  1.8300000000000E+00 -2.1765816182284E-02  2.0668508017514E-01
   185  1.8400000000000E+00 -1.6546251062747E-02  1.9739144062681E-01
   186  1.8500000000000E+00 -1.1717548465804E-02  1.8834217189415E-01
   187  1.8600000000000E+00 -7.2708866095932E-03  1.7953755997135E-01
   188  1.8700000000000E+00 -3.1967422047444E-03  1.7097752748109E-01
   189  1.8800000000000E+00  5.1506400607014E-04  1.6266164765674E-01
   190  1.8900000000000E+00  3.8753212107572E-03  1.5458915916668E-01
   191  1.9000000000000E+00  6.8953821033655E-03  1.4675898172693E-01
   192  1.9100000000000E+00  9.5871161822223E-03  1.3916973244667E-01
   193  1.9200000000000E+00  1.1962862879186E-02  1.3181974284865E-01
   194  1.9300000000000E+00  1.4035384627347E-02  1.2470707650555E-01
   195  1.9400000000000E+00  1.5817819973442E-02  1.1782954723146E-01
   196  1.9500000000000E+00  1.7323636839947E-02  1.1118473776640E-01
   197  1.9600000000000E+00  1.8566586040685E-02  1.0477001889124E-01
   198  1.9700000000000E+00  1.9560655152477E-02  9.8582568909104E-02
   199  1.9800000000000E+00  2.0320022844121E-02  9.2619393429177E-02
   200  1.9900000000000E+00  2.0859013762634E-02  8.6877345388365E-02
   201  2.0000000000000E+00  2.1192054075242E-02  8.1353145246210E-02
   202  2.0100000000000E+00  2.1333627764255E-02  7.6043401288566E-02
   203  2.0200000000000E+00  2.1298233770314E-02  7.0944629975869E-02
   204  2.0300000000000E+00  2.1100344077915E-02  6.6053276272414E-02
   205  2.0400000000000E+00  2.0754362835381E-02  6.1365733893742E-02
   206  2.0500000000000E+00  2.0274586599613E-02  5.6878365410126E-02
   207  2.0600000000000E+00  1.9675165793915E-02  5.2587522145387E-02
   208  2.0700000000000E+00  1.8970067465271E-02  4.8489563811315E-02
   209  2.0800000000000E+00  1.8173039424984E-02  4.4580877819614E-02
   210  2.0900000000000E+00  1.7297575854335E-02  4.0857898214787E-02
   211  2.1000000000000E+00  1.6356884454341E-02  3.7317124173091E-02
   212  2.1100000000000E+00  1.5363855215883E-02  3.3955138014652E-02
   213  2.1200000000000E+00  1.4331030883760E-02  3.0768622677694E-02
   214  2.1300000000000E+00  1.3270579185019E-02  2.7754378606031E-02
   215  2.1400000000000E+00  1.2194266888623E-02  2.4909340003193E-02
   216  2.1500000000000E+00  1.1113435760248E-02  2.2230590408821E-02
   217  2.1600000000000E+00  1.0038980618008E-02  1.9715377616162E-02
   218  2.1700000000000E+00  8.9813301637354E-03  1.7361128571706E-02
   219  2.1800000000000E+00  7.9504199440390E-03  1.5165456343693E-02
   220  2.1900000000000E+00  6.9556992486639E-03  1.3126187764887E-02
   221  2.2000000000000E+00  6.0060929846043E-03  1.1241360992303E-02
   222  2.2100000000000E+00  5.1097326394914E-03  9.5091143088608E-03
   223  2.2200000000000E+00  4.2732108826763E-03  7.9271094567542E-03
   224  2.2300000000000E+00  3.5020347925058E-03  6.4930147501457E-03
   225  2.2400000000000E+00  2.8016957690215E-03  5.2055234792562E-03
   226  2.2500000000000E+00  2.1764824185500E-03  4.0633245433224E-03
   227  2.2600000000000E+00  1.6294719830621E-03  3.0651037031333E-03
   228  2.2700000000000E+00  1.1625729522609E-03  2.2095855803360E-03
   229  2.2800000000000E+00  7.7651840181058E-04  1.4955321814052E-03
   230  2.2900000000000E+00  4.7098350278003E-04  9.2199841860811E-04
   231  2.3000000000000E+00  2.4388699189859E-04  4.8676209143074E-04
   232  2.3100000000000E+00  9.2675218371208E-05  1.8916060755600E-04
   233  2.3200000000000E+00  1.7555262792896E-05  3.6869660445833E-05
   234  2.3300000000000E+00 -2.6221499935439E-06 -5.5862411719837E-06
   235  2.3400000000000E+00 -3.0726100243168E-07 -6.6545414380850E-07
   236  2.35  0.  0.
   237  2.36 -0. -0.
   238  2.37 -0. -0.
   239  2.38 -0. -0.
   240  2.39  0.  0.
   241  2.40  0.  0.
   242  2.41  0.  0.
   243  2.42  0.  0.
   244  2.43  0.  0.
   245  2.44  0.  0.
   246  2.45  0.  0.
   247  2.46  0.  0.
   248  2.47  0.  0.
   249  2.48  0.  0.
   250  2.49  0.  0.
   251  2.50  0.  0.
   252  2.51  0.  0.
   253  2.52  0.  0.
   254  2.53  0.  0.
   255  2.54  0.  0.
   256  2.55  0.  0.
   257  2.56  0.  0.
   258  2.57  0.  0.
   259  2.58  0.  0.
   260  2.59  0.  0.
   261  2.60  0.  0.
   262  2.61  0.  0.
   263  2.62  0.  0.
   264  2.63  0.  0.
   265  2.64  0.  0.
   266  2.65  0.  0.
   267  2.66  0.  0.
   268  2.67  0.  0.
   269  2.68  0.  0.
   270  2.69  0.  0.
   271  2.70  0.  0.
   272  2.71  0.  0.
   273  2.72  0.  0.
   274  2.73  0.  0.
   275  2.74  0.  0.
   276  2.75  0.  0.
   277  2.76  0.  0.
   278  2.77  0.  0.
   279  2.78  0.  0.
   280  2.79  0.  0.
   281  2.80  0.  0.
   282  2.81  0.  0.
   283  2.82  0.  0.
   284  2.83  0.  0.
   285  2.84  0.  0.
   286  2.85  0.  0.
   287  2.86  0.  0.
   288  2.87  0.  0.
   289  2.88  0.  0.
   290  2.89  0.  0.
   291  2.90  0.  0.
   292  2.91  0.  0.
   293  2.92  0.  0.
   294  2.93  0.  0.
   295  2.94  0.  0.
   296  2.95  0.  0.
   297  2.96  0.  0.
   298  2.97  0.  0.
   299  2.98  0.  0.
   300  2.99  0.  0.
   301  3.00  0.  0.
   302  3.01  0.  0.
   303  3.02  0.  0.
   304  3.03  0.  0.
   305  3.04  0.  0.
   306  3.05  0.  0.
   307  3.06  0.  0.
   308  3.07  0.  0.
   309  3.08  0.  0.
   310  3.09  0.  0.
   311  3.10  0.  0.
   312  3.11  0.  0.
   313  3.12  0.  0.
   314  3.13  0.  0.
   315  3.14  0.  0.
   316  3.15  0.  0.
   317  3.16  0.  0.
   318  3.17  0.  0.
   319  3.18  0.  0.
   320  3.19  0.  0.
   321  3.20  0.  0.
   322  3.21  0.  0.
   323  3.22  0.  0.
   324  3.23  0.  0.
   325  3.24  0.  0.
   326  3.25  0.  0.
   327  3.26  0.  0.
   328  3.27  0.  0.
   329  3.28  0.  0.
   330  3.29  0.  0.
   331  3.30  0.  0.
   332  3.31  0.  0.
   333  3.32  0.  0.
   334  3.33  0.  0.
   335  3.34  0.  0.
   336  3.35  0.  0.
   337  3.36  0.  0.
   338  3.37  0.  0.
   339  3.38  0.  0.
   340  3.39  0.  0.
   341  3.40  0.  0.
   342  3.41  0.  0.
   343  3.42  0.  0.
   344  3.43  0.  0.
   345  3.44  0.  0.
   346  3.45  0.  0.
   347  3.46  0.  0.
   348  3.47  0.  0.
   349  3.48  0.  0.
   350  3.49  0.  0.
   351  3.50  0.  0.
   352  3.51  0.  0.
   353  3.52  0.  0.
   354  3.53  0.  0.
   355  3.54  0.  0.
   356  3.55  0.  0.
   357  3.56  0.  0.
   358  3.57  0.  0.
   359  3.58  0.  0.
   360  3.59  0.  0.
   361  3.60  0.  0.
   362  3.61  0.  0.
   363  3.62  0.  0.
   364  3.63  0.  0.
   365  3.64  0.  0.
   366  3.65  0.  0.
   367  3.66  0.  0.
   368  3.67  0.  0.
   369  3.68  0.  0.
   370  3.69  0.  0.
   371  3.70  0.  0.
   372  3.71  0.  0.
   373  3.72  0.  0.
   374  3.73  0.  0.
   375  3.74  0.  0.
   376  3.75  0.  0.
   377  3.76  0.  0.
   378  3.77  0.  0.
   379  3.78  0.  0.
   380  3.79  0.  0.
   381  3.80  0.  0.
   382  3.81  0.  0.
   383  3.82  0.  0.
   384  3.83  0.  0.
   385  3.84  0.  0.
   386  3.85  0.  0.
   387  3.86  0.  0.
   388  3.87  0.  0.
   389  3.88  0.  0.
   390  3.89  0.  0.
   391  3.90  0.  0.
   392  3.91  0.  0.
   393  3.92  0.  0.
   394  3.93  0.  0.
   395  3.94  0.  0.
   396  3.95  0.  0.
   397  3.96  0.  0.
   398  3.97  0.  0.
   399  3.98  0.  0.
   400  3.99  0.  0.
   401  4.00  0.  0.
   402  4.01  0.  0.
   403  4.02  0.  0.
   404  4.03  0.  0.
   405  4.04  0.  0.
   406  4.05  0.  0.
   407  4.06  0.  0.
   408  4.07  0.  0.
   409  4.08  0.  0.
   410  4.09  0.  0.
   411  4.10  0.  0.
   412  4.11  0.  0.
   413  4.12  0.  0.
   414  4.13  0.  0.
   415  4.14  0.  0.
   416  4.15  0.  0.
   417  4.16  0.  0.
   418  4.17  0.  0.
   419  4.18  0.  0.
   420  4.19  0.  0.
   421  4.20  0.  0.
   422  4.21  0.  0.
   423  4.22  0.  0.
   424  4.23  0.  0.
   425  4.24  0.  0.
   426  4.25  0.  0.
   427  4.26  0.  0.
   428  4.27  0.  0.
   429  4.28  0.  0.
   430  4.29  0.  0.
   431  4.30  0.  0.
   432  4.31  0.  0.
   433  4.32  0.  0.
   434  4.33  0.  0.
   435  4.34  0.  0.
   436  4.35  0.  0.
   437  4.36  0.  0.
   438  4.37  0.  0.
   439  4.38  0.  0.
   440  4.39  0.  0.
   441  4.40  0.  0.
   442  4.41  0.  0.
   443  4.42  0.  0.
   444  4.43  0.  0.
   445  4.44  0.  0.
   446  4.45  0.  0.
   447  4.46  0.  0.
   448  4.47  0.  0.
   449  4.48  0.  0.
   450  4.49  0.  0.
   451  4.50  0.  0.
   452  4.51  0.  0.
   453  4.52  0.  0.
   454  4.53  0.  0.
   455  4.54  0.  0.
   456  4.55  0.  0.
   457  4.56  0.  0.
   458  4.57  0.  0.
   459  4.58  0.  0.
   460  4.59  0.  0.
   461  4.60  0.  0.
   462  4.61  0.  0.
   463  4.62  0.  0.
   464  4.63  0.  0.
   465  4.64  0.  0.
   466  4.65  0.  0.
   467  4.66  0.  0.
   468  4.67  0.  0.
   469  4.68  0.  0.
   470  4.69  0.  0.
   471  4.70  0.  0.
   472  4.71  0.  0.
   473  4.72  0.  0.
   474  4.73  0.  0.
   475  4.74  0.  0.
   476  4.75  0.  0.
   477  4.76  0.  0.
   478  4.77  0.  0.
   479  4.78  0.  0.
   480  4.79  0.  0.
   481  4.80  0.  0.
   482  4.81  0.  0.
   483  4.82  0.  0.
   484  4.83  0.  0.
   485  4.84  0.  0.
   486  4.85  0.  0.
   487  4.86  0.  0.
   488  4.87  0.  0.
   489  4.88  0.  0.
   490  4.89  0.  0.
   491  4.90  0.  0.
   492  4.91  0.  0.
   493  4.92  0.  0.
   494  4.93  0.  0.
   495  4.94  0.  0.
   496  4.95  0.  0.
   497  4.96  0.  0.
   498  4.97  0.  0.
   499  4.98  0.  0.
   500  4.99  0.  0.
   501  5.00  0.  0.
   502  5.01  0.  0.
   503  5.02  0.  0.
   504  5.03  0.  0.
   505  5.04  0.  0.
   506  5.05  0.  0.
   507  5.06  0.  0.
   508  5.07  0.  0.
   509  5.08  0.  0.
   510  5.09  0.  0.
   511  5.10  0.  0.
   512  5.11  0.  0.
   513  5.12  0.  0.
   514  5.13  0.  0.
   515  5.14  0.  0.
   516  5.15  0.  0.
   517  5.16  0.  0.
   518  5.17  0.  0.
   519  5.18  0.  0.
   520  5.19  0.  0.
   521  5.20  0.  0.
   522  5.21  0.  0.
   523  5.22  0.  0.
   524  5.23  0.  0.
   525  5.24  0.  0.
   526  5.25  0.  0.
   527  5.26  0.  0.
   528  5.27  0.  0.
   529  5.28  0.  0.
   530  5.29  0.  0.
   531  5.30  0.  0.
   532  5.31  0.  0.
   533  5.32  0.  0.
   534  5.33  0.  0.
   535  5.34  0.  0.
   536  5.35  0.  0.
   537  5.36  0.  0.
   538  5.37  0.  0.
   539  5.38  0.  0.
   540  5.39  0.  0.
   541  5.40  0.  0.
   542  5.41  0.  0.
   543  5.42  0.  0.
   544  5.43  0.  0.
   545  5.44  0.  0.
   546  5.45  0.  0.
   547  5.46  0.  0.
   548  5.47  0.  0.
   549  5.48  0.  0.
   550  5.49  0.  0.
   551  5.50  0.  0.
   552  5.51  0.  0.
   553  5.52  0.  0.
   554  5.53  0.  0.
   555  5.54  0.  0.
   556  5.55  0.  0.
   557  5.56  0.  0.
   558  5.57  0.  0.
   559  5.58  0.  0.
   560  5.59  0.  0.
   561  5.60  0.  0.
   562  5.61  0.  0.
   563  5.62  0.  0.
   564  5.63  0.  0.
   565  5.64  0.  0.
   566  5.65  0.  0.
   567  5.66  0.  0.
   568  5.67  0.  0.
   569  5.68  0.  0.
   570  5.69  0.  0.
   571  5.70  0.  0.
   572  5.71  0.  0.
   573  5.72  0.  0.
   574  5.73  0.  0.
   575  5.74  0.  0.
   576  5.75  0.  0.
   577  5.76  0.  0.
   578  5.77  0.  0.
   579  5.78  0.  0.
   580  5.79  0.  0.
   581  5.80  0.  0.
   582  5.81  0.  0.
   583  5.82  0.  0.
   584  5.83  0.  0.
   585  5.84  0.  0.
   586  5.85  0.  0.
   587  5.86  0.  0.
   588  5.87  0.  0.
   589  5.88  0.  0.
   590  5.89  0.  0.
   591  5.90  0.  0.
   592  5.91  0.  0.
   593  5.92  0.  0.
   594  5.93  0.  0.
   595  5.94  0.  0.
   596  5.95  0.  0.
   597  5.96  0.  0.
   598  5.97  0.  0.
   599  5.98  0.  0.
   600  5.99  0.  0.
   1                         1.7838417922435E+00 -9.2906635678963E-01
     1  0.0000000000000E+00  7.4173500674846E-11 -1.1119476867050E-11
     2  1.0000000000000E-02  1.2758489651199E-03  2.0791419014683E-04
     3  2.0000000000000E-02  5.0989289613383E-03  8.3176291481439E-04
     4  3.0000000000000E-02  1.1455853586583E-02  1.8718632915772E-03
     5  4.0000000000000E-02  2.0324359784741E-02  3.3287393716946E-03
     6  5.0000000000000E-02  3.1673379137191E-02  5.2031154427911E-03
     7  6.0000000000000E-02  4.5463137411865E-02  7.4959066920408E-03
     8  7.0000000000000E-02  6.1645282110607E-02  1.0208207269127E-02
     9  8.0000000000000E-02  8.0163037681424E-02  1.3341275799372E-02
    10  9.0000000000000E-02  1.0095138798762E-01  1.6896518408289E-02
    11  1.0000000000000E-01  1.2393728555173E-01  2.0875469329615E-02
    12  1.1000000000000E-01  1.4903988701693E-01  2.5279769179481E-02
    13  1.2000000000000E-01  1.7617081419481E-01  3.0111140989677E-02
    14  1.3000000000000E-01  2.0523443999295E-01  3.5371364103137E-02
    15  1.4000000000000E-01  2.3612819844174E-01  4.1062246044560E-02
    16  1.5000000000000E-01  2.6874291796546E-01  4.7185592488615E-02
    17  1.6000000000000E-01  3.0296317696839E-01  5.3743175457314E-02
    18  1.7000000000000E-01  3.3866768073376E-01  6.0736699886964E-02
    19  1.8000000000000E-01  3.7572965856025E-01  6.8167768713419E-02
    20  1.9000000000000E-01  4.1401727998904E-01  7.6037846632313E-02
    21  2.0000000000000E-01  4.5339408890400E-01  8.4348222698385E-02
    22  2.1000000000000E-01  4.9371945421836E-01  9.3099971934884E-02
    23  2.2000000000000E-01  5.3484903579386E-01  1.0229391613046E-01
    24  2.3000000000000E-01  5.7663526417348E-01  1.1193058400669E-01
    25  2.4000000000000E-01  6.1892783264567E-01  1.2201017094449E-01
    26  2.5000000000000E-01  6.6157420009874E-01  1.3253249846232E-01
    27  2.6000000000000E-01  7.0442010306693E-01  1.4349697364273E-01
    28  2.7000000000000E-01  7.4731007531710E-01  1.5490254870695E-01
    29  2.8000000000000E-01  7.9008797327605E-01  1.6674768093967E-01
    30  2.9000000000000E-01  8.3259750555398E-01  1.7903029316757E-01
    31  3.0000000000000E-01  8.7468276478023E-01  1.9174773499602E-01
    32  3.1000000000000E-01  9.1618875993354E-01  2.0489674500848E-01
    33  3.2000000000000E-01  9.5696194732041E-01  2.1847341413177E-01
    34  3.3000000000000E-01  9.9685075833319E-01  2.3247315036930E-01
    35  3.4000000000000E-01  1.0357061221041E+00  2.4689064510106E-01
    36  3.5000000000000E-01  1.0733819811624E+00  2.6171984114614E-01
    37  3.6000000000000E-01  1.1097357982006E+00  2.7695390277883E-01
    38  3.7000000000000E-01  1.1446290520630E+00  2.9258518788433E-01
    39  3.8000000000000E-01  1.1779277210813E+00  3.0860522243345E-01
    40  3.9000000000000E-01  1.2095027519079E+00  3.2500467744923E-01
    41  4.0000000000000E-01  1.2392305120253E+00  3.4177334862979E-01
    42  4.1000000000000E-01  1.2669932241494E+00  3.5890013878319E-01
    43  4.2000000000000E-01  1.2926793807955E+00  3.7637304322062E-01
    44  4.3000000000000E-01  1.3161841373257E+00  3.9417913824311E-01
    45  4.4000000000000E-01  1.3374096818694E+00  4.1230457284634E-01
    46  4.5000000000000E-01  1.3562655805750E+00  4.3073456375563E-01
    47  4.6000000000000E-01  1.3726690967372E+00  4.4945339389060E-01
    48  4.7000000000000E-01  1.3865454824342E+00  4.6844441434553E-01
    49  4.8000000000000E-01  1.3978282414055E+00  4.8769004995751E-01
    50  4.9000000000000E-01  1.4064593620090E+00  5.0717180851964E-01
    51  5.0000000000000E-01  1.4123895192090E+00  5.2687029368166E-01
    52  5.1000000000000E-01  1.4155782446670E+00  5.4676522156474E-01
    53  5.2000000000000E-01  1.4159940641344E+00  5.6683544110134E-01
    54  5.3000000000000E-01  1.4136146014774E+00  5.8705895809466E-01
    55  5.4000000000000E-01  1.4084266488057E+00  6.0741296297604E-01
    56  5.5000000000000E-01  1.4004262023153E+00  6.2787386222193E-01
    57  5.6000000000000E-01  1.3896184636055E+00  6.4841731337540E-01
    58  5.7000000000000E-01  1.3760178063776E+00  6.6901826360087E-01
    59  5.8000000000000E-01  1.3596477085776E+00  6.8965099168376E-01
    60  5.9000000000000E-01  1.3405406501951E+00  7.1028915337096E-01
    61  6.0000000000000E-01  1.3187379770897E+00  7.3090582993171E-01
    62  6.1000000000000E-01  1.2942897313664E+00  7.5147357980301E-01
    63  6.2000000000000E-01  1.2672544489776E+00  7.7196449316831E-01
    64  6.3000000000000E-01  1.2376989253786E+00  7.9235024930396E-01
    65  6.4000000000000E-01  1.2056979502141E+00  8.1260217651338E-01
    66  6.5000000000000E-01  1.1713340121557E+00  8.3269131445614E-01
    67  6.6000000000000E-01  1.1346969751519E+00  8.5258847866623E-01
    68  6.7000000000000E-01  1.0958837274874E+00  8.7226432704225E-01
    69  6.8000000000000E-01  1.0549978051734E+00  8.9168942808174E-01
    70  6.9000000000000E-01  1.0121489913169E+00  9.1083433062173E-01
    71  7.0000000000000E-01  9.6745289322523E-01  9.2966963483922E-01
    72  7.1000000000000E-01  9.2103049910836E-01  9.4816606425775E-01
    73  7.2000000000000E-01  8.7300771633828E-01  9.6629453849950E-01
    74  7.3000000000000E-01  8.2351489330634E-01  9.8402624651751E-01
    75  7.4000000000000E-01  7.7268632699650E-01  1.0013327200385E+00
    76  7.5000000000000E-01  7.2065975845475E-01  1.0181859069437E+00
    77  7.6000000000000E-01  6.6757585838671E-01  1.0345582443153E+00