Re    ONCVPSP-4.0.1  r_core=   2.40430   2.58324   2.59874   2.49217
     75.0000     15.0000      230118    zatom,zion,pspd
     8       2   3     4   600     0    pspcod,pspxc,lmax,lloc,mmax,r2well
  5.99000000  4.00000000  0.00000000    rchrg fchrg qchrg
     2     2     2     2     0    nproj
     1     1           extension_switch
   0                         2.2936531768368E+00 -1.7212003075395E+00
     1  0.0000000000000E+00 -5.0374149296317E-12  3.4031111262323E-13
     2  1.0000000000000E-02  5.5221057852671E-02  2.1124476754117E-02
     3  2.0000000000000E-02  1.1033621252736E-01  4.2242781021803E-02
     4  3.0000000000000E-02  1.6523978644613E-01  6.3348735004253E-02
     5  4.0000000000000E-02  2.1982655270766E-01  8.4436150306007E-02
     6  5.0000000000000E-02  2.7399195911791E-01  1.0549882270676E-01
     7  6.0000000000000E-02  3.2763235065537E-01  1.2653052701710E-01
     8  7.0000000000000E-02  3.8064518985479E-01  1.4752501204575E-01
     9  8.0000000000000E-02  4.3292927459849E-01  1.6847599570555E-01
    10  9.0000000000000E-02  4.8438495281073E-01  1.8937716028493E-01
    11  1.0000000000000E-01  5.3491433355784E-01  2.1022214791128E-01
    12  1.1000000000000E-01  5.8442149406586E-01  2.3100455623179E-01
    13  1.2000000000000E-01  6.3281268217695E-01  2.5171793433691E-01
    14  1.3000000000000E-01  6.7999651377724E-01  2.7235577895058E-01
    15  1.4000000000000E-01  7.2588416474058E-01  2.9291153091084E-01
    16  1.5000000000000E-01  7.7038955694644E-01  3.1337857196322E-01
    17  1.6000000000000E-01  8.1342953794395E-01  3.3375022188870E-01
    18  1.7000000000000E-01  8.5492405385006E-01  3.5401973598652E-01
    19  1.8000000000000E-01  8.9479631508574E-01  3.7418030293155E-01
    20  1.9000000000000E-01  9.3297295457182E-01  3.9422504302438E-01
    21  2.0000000000000E-01  9.6938417802413E-01  4.1414700685111E-01
    22  2.1000000000000E-01  1.0039639060069E+00  4.3393917436885E-01
    23  2.2000000000000E-01  1.0366499074234E+00  4.5359445443105E-01
    24  2.3000000000000E-01  1.0673839241434E+00  4.7310568476608E-01
    25  2.4000000000000E-01  1.0961117864884E+00  4.9246563242032E-01
    26  2.5000000000000E-01  1.1227835193190E+00  5.1166699467626E-01
    27  2.6000000000000E-01  1.1473534384890E+00  5.3070240045407E-01
    28  2.7000000000000E-01  1.1697802374574E+00  5.4956441220378E-01
    29  2.8000000000000E-01  1.1900270638710E+00  5.6824552829373E-01
    30  2.9000000000000E-01  1.2080615859552E+00  5.8673818589916E-01
    31  3.0000000000000E-01  1.2238560485765E+00  6.0503476439342E-01
    32  3.1000000000000E-01  1.2373873188636E+00  6.2312758924234E-01
    33  3.2000000000000E-01  1.2486369213007E+00  6.4100893640116E-01
    34  3.3000000000000E-01  1.2575910622310E+00  6.5867103721122E-01
    35  3.4000000000000E-01  1.2642406437359E+00  6.7610608379241E-01
    36  3.5000000000000E-01  1.2685812668783E+00  6.9330623492559E-01
    37  3.6000000000000E-01  1.2706132243286E+00  7.1026362241741E-01
    38  3.7000000000000E-01  1.2703414824121E+00  7.2697035793869E-01
    39  3.8000000000000E-01  1.2677756526484E+00  7.4341854032563E-01
    40  3.9000000000000E-01  1.2629299528724E+00  7.5960026333158E-01
    41  4.0000000000000E-01  1.2558231580590E+00  7.7550762381590E-01
    42  4.1000000000000E-01  1.2464785409908E+00  7.9113273035429E-01
    43  4.2000000000000E-01  1.2349238029396E+00  8.0646771225419E-01
    44  4.3000000000000E-01  1.2211909945517E+00  8.2150472895691E-01
    45  4.4000000000000E-01  1.2053164271536E+00  8.3623597980702E-01
    46  4.5000000000000E-01  1.1873405747161E+00  8.5065371416806E-01
    47  4.6000000000000E-01  1.1673079667389E+00  8.6475024186245E-01
    48  4.7000000000000E-01  1.1452670723378E+00  8.7851794391215E-01
    49  4.8000000000000E-01  1.1212701758388E+00  8.9194928355557E-01
    50  4.9000000000000E-01  1.0953732442040E+00  9.0503681751494E-01
    51  5.0000000000000E-01  1.0676357866331E+00  9.1777320748752E-01
    52  5.1000000000000E-01  1.0381207067023E+00  9.3015123183297E-01
    53  5.2000000000000E-01  1.0068941474220E+00  9.4216379742826E-01
    54  5.3000000000000E-01  9.7402532960832E-01  9.5380395166076E-01
    55  5.4000000000000E-01  9.3958638398341E-01  9.6506489452940E-01
    56  5.5000000000000E-01  9.0365217742907E-01  9.7593999082316E-01
    57  5.6000000000000E-01  8.6630013383585E-01  9.8642278234540E-01
    58  5.7000000000000E-01  8.2761004999981E-01  9.9650700015251E-01
    59  5.8000000000000E-01  7.8766390703094E-01  1.0061865767743E+00
    60  5.9000000000000E-01  7.4654567774725E-01  1.0154556583839E+00
    61  6.0000000000000E-01  7.0434113053701E-01  1.0243086168844E+00
    62  6.1000000000000E-01  6.6113763017914E-01  1.0327400618789E+00
    63  6.2000000000000E-01  6.1702393611792E-01  1.0407448524923E+00
    64  6.3000000000000E-01  5.7208999869303E-01  1.0483181090103E+00
    65  6.4000000000000E-01  5.2642675382931E-01  1.0554552243044E+00
    66  6.5000000000000E-01  4.8012591669312E-01  1.0621518750099E+00
    67  6.6000000000000E-01  4.3327977482281E-01  1.0684040324248E+00
    68  6.7000000000000E-01  3.8598098124038E-01  1.0742079730979E+00
    69  6.8000000000000E-01  3.3832234804986E-01  1.0795602890755E+00
    70  6.9000000000000E-01  2.9039664102443E-01  1.0844578977755E+00
    71  7.0000000000000E-01  2.4229637568023E-01  1.0888980514597E+00
    72  7.1000000000000E-01  1.9411361532882E-01  1.0928783462750E+00
    73  7.2000000000000E-01  1.4593977159327E-01  1.0963967308354E+00
    74  7.3000000000000E-01  9.7865407864712E-02  1.0994515143179E+00
    75  7.4000000000000E-01  4.9980046166262E-02  1.1020413740459E+00
    76  7.5000000000000E-01  2.3719778808080E-03  1.1041653625352E+00
    77  7.6000000000000E-01 -4.4871921213035E-02  1.1058229139788E+00
    78  7.7000000000000E-01 -9.1666371165652E-02  1.1070138501485E+00
    79  7.8000000000000E-01 -1.3792786292484E-01  1.1077383856905E+00
    80  7.9000000000000E-01 -1.8357482784633E-01  1.1079971327976E+00
    81  8.0000000000000E-01 -2.2852780126134E-01  1.1077911052377E+00
    82  8.1000000000000E-01 -2.7270957973317E-01  1.1071217217225E+00
    83  8.2000000000000E-01 -3.1604537165354E-01  1.1059908086012E+00
    84  8.3000000000000E-01 -3.5846294084841E-01  1.1044006018660E+00
    85  8.4000000000000E-01 -3.9989274288299E-01  1.1023537484562E+00
    86  8.5000000000000E-01 -4.4026805377667E-01  1.0998533068517E+00
    87  8.6000000000000E-01 -4.7952509086012E-01  1.0969027469480E+00
    88  8.7000000000000E-01 -5.1760312552892E-01  1.0935059492033E+00
    89  8.8000000000000E-01 -5.5444458767096E-01  1.0896672030564E+00
    90  8.9000000000000E-01 -5.8999516156818E-01  1.0853912046093E+00
    91  9.0000000000000E-01 -6.2420387309704E-01  1.0806830535744E+00
    92  9.1000000000000E-01 -6.5702316807620E-01  1.0755482494875E+00
    93  9.2000000000000E-01 -6.8840898163441E-01  1.0699926871872E+00
    94  9.3000000000000E-01 -7.1832079849647E-01  1.0640226515667E+00
    95  9.4000000000000E-01 -7.4672170410994E-01  1.0576448116034E+00
    96  9.5000000000000E-01 -7.7357842656008E-01  1.0508662136733E+00
    97  9.6000000000000E-01 -7.9886136924622E-01  1.0436942741617E+00
    98  9.7000000000000E-01 -8.2254463431680E-01  1.0361367713803E+00
    99  9.8000000000000E-01 -8.4460603688608E-01  1.0282018368039E+00
   100  9.9000000000000E-01 -8.6502711007975E-01  1.0198979456432E+00
   101  1.0000000000000E+00 -8.8379310098108E-01  1.0112339067682E+00
   102  1.0100000000000E+00 -9.0089295757358E-01  1.0022188520027E+00
   103  1.0200000000000E+00 -9.1631930679967E-01  9.9286222480724E-01
   104  1.0300000000000E+00 -9.3006842387807E-01  9.8317376837528E-01
   105  1.0400000000000E+00 -9.4214019304534E-01  9.7316351316230E-01
   106  1.0500000000000E+00 -9.5253805990899E-01  9.6284176387447E-01
   107  1.0600000000000E+00 -9.6126897562105E-01  9.5221908594153E-01
   108  1.0700000000000E+00 -9.6834333310162E-01  9.4130629150150E-01
   109  1.0800000000000E+00 -9.7377489556170E-01  9.3011442492527E-01
   110  1.0900000000000E+00 -9.7758071759360E-01  9.1865474791057E-01
   111  1.1000000000000E+00 -9.7978105911564E-01  9.0693872417605E-01
   112  1.1100000000000E+00 -9.8039929247437E-01  8.9497800378675E-01
   113  1.1200000000000E+00 -9.7946180302444E-01  8.8278440714360E-01
   114  1.1300000000000E+00 -9.7699788352060E-01  8.7036990867020E-01
   115  1.1400000000000E+00 -9.7303962267100E-01  8.5774662023079E-01
   116  1.1500000000000E+00 -9.6762178821324E-01  8.4492677431429E-01
   117  1.1600000000000E+00 -9.6078170488670E-01  8.3192270701934E-01
   118  1.1700000000000E+00 -9.5255912768515E-01  8.1874684087626E-01
   119  1.1800000000000E+00 -9.4299611078278E-01  8.0541166754179E-01
   120  1.1900000000000E+00 -9.3213687253511E-01  7.9192973040304E-01
   121  1.2000000000000E+00 -9.2002765696268E-01  7.7831360712697E-01
   122  1.2100000000000E+00 -9.0671659213146E-01  7.6457589219199E-01
   123  1.2200000000000E+00 -8.9225354584772E-01  7.5072917943833E-01
   124  1.2300000000000E+00 -8.7668997908826E-01  7.3678604467320E-01
   125  1.2400000000000E+00 -8.6007879758869E-01  7.2275902836734E-01
   126  1.2500000000000E+00 -8.4247420201256E-01  7.0866061847845E-01
   127  1.2600000000000E+00 -8.2393153712370E-01  6.9450323343709E-01
   128  1.2700000000000E+00 -8.0450714038144E-01  6.8029920533000E-01
   129  1.2800000000000E+00 -7.8425819037555E-01  6.6606076331506E-01
   130  1.2900000000000E+00 -7.6324255551272E-01  6.5180001730169E-01
   131  1.3000000000000E+00 -7.4151864336080E-01  6.3752894192942E-01
   132  1.3100000000000E+00 -7.1914525104999E-01  6.2325936087683E-01
   133  1.3200000000000E+00 -6.9618141712189E-01  6.0900293153175E-01
   134  1.3300000000000E+00 -6.7268627520843E-01  5.9477113005306E-01
   135  1.3400000000000E+00 -6.4871890991187E-01  5.8057523685286E-01
   136  1.3500000000000E+00 -6.2433821524635E-01  5.6642632252699E-01
   137  1.3600000000000E+00 -5.9960275598851E-01  5.5233523426049E-01
   138  1.3700000000000E+00 -5.7457063227206E-01  5.3831258273335E-01
   139  1.3800000000000E+00 -5.4929934774655E-01  5.2436872955046E-01
   140  1.3900000000000E+00 -5.2384568160605E-01  5.1051377521849E-01
   141  1.4000000000000E+00 -4.9826556477739E-01  4.9675754769071E-01
   142  1.4100000000000E+00 -4.7261396054160E-01  4.8310959149949E-01
   143  1.4200000000000E+00 -4.4694474984460E-01  4.6957915749448E-01
   144  1.4300000000000E+00 -4.2131062153616E-01  4.5617519320313E-01
   145  1.4400000000000E+00 -3.9576296775739E-01  4.4290633382839E-01
   146  1.4500000000000E+00 -3.7035178467895E-01  4.2978089389691E-01
   147  1.4600000000000E+00 -3.4512557877279E-01  4.1680685956940E-01
   148  1.4700000000000E+00 -3.2013127878102E-01  4.0399188162314E-01
   149  1.4800000000000E+00 -2.9541415352623E-01  3.9134326911488E-01
   150  1.4900000000000E+00 -2.7101773568738E-01  3.7886798373083E-01
   151  1.5000000000000E+00 -2.4698375164602E-01  3.6657263482860E-01
   152  1.5100000000000E+00 -2.2335205748729E-01  3.5446347517442E-01
   153  1.5200000000000E+00 -2.0016058122082E-01  3.4254639737708E-01
   154  1.5300000000000E+00 -1.7744527126639E-01  3.3082693101866E-01
   155  1.5400000000000E+00 -1.5524005122996E-01  3.1931024048019E-01
   156  1.5500000000000E+00 -1.3357678097634E-01  3.0800112345907E-01
   157  1.5600000000000E+00 -1.1248522398548E-01  2.9690401017305E-01
   158  1.5700000000000E+00 -9.1993020960924E-02  2.8602296324461E-01
   159  1.5800000000000E+00 -7.2125669640579E-02  2.7536167825743E-01
   160  1.5900000000000E+00 -5.2906510742213E-02  2.6492348497566E-01
   161  1.6000000000000E+00 -3.4356719958691E-02  2.5471134921500E-01
   162  1.6100000000000E+00 -1.6495305901499E-02  2.4472787535327E-01
   163  1.6200000000000E+00  6.6088612516069E-04  2.3497530946678E-01
   164  1.6300000000000E+00  1.7097164652618E-02  2.2545554307771E-01
   165  1.6400000000000E+00  3.2800977025980E-02  2.1617011749619E-01
   166  1.6500000000000E+00  4.7761888993831E-02  2.0712022873990E-01
   167  1.6600000000000E+00  6.1971559083976E-02  1.9830673301264E-01
   168  1.6700000000000E+00  7.5423707951969E-02  1.8973015272263E-01
   169  1.6800000000000E+00  8.8114082900570E-02  1.8139068301991E-01
   170  1.6900000000000E+00  1.0004041777874E-01  1.7328819883171E-01
   171  1.7000000000000E+00  1.1120238847826E-01  1.6542226237366E-01
   172  1.7100000000000E+00  1.2160156425479E-01  1.5779213111380E-01
   173  1.7200000000000E+00  1.3124135510763E-01  1.5039676616613E-01
   174  1.7300000000000E+00  1.4012695545945E-01  1.4323484108932E-01
   175  1.7400000000000E+00  1.4826528438253E-01  1.3630475106603E-01
   176  1.7500000000000E+00  1.5566492262329E-01  1.2960462243768E-01
   177  1.7600000000000E+00  1.6233604668027E-01  1.2313232256919E-01
   178  1.7700000000000E+00  1.6829036019374E-01  1.1688547001799E-01
   179  1.7800000000000E+00  1.7354102290688E-01  1.1086144498103E-01
   180  1.7900000000000E+00  1.7810257745939E-01  1.0505739999398E-01
   181  1.8000000000000E+00  1.8199087427439E-01  9.9470270856076E-02
   182  1.8100000000000E+00  1.8522299479847E-01  9.4096787754484E-02
   183  1.8200000000000E+00  1.8781717335294E-01  8.8933486562027E-02
   184  1.8300000000000E+00  1.8979271785180E-01  8.3976720282131E-02
   185  1.8400000000000E+00  1.9116992963808E-01  7.9222670615180E-02
   186  1.8500000000000E+00  1.9197002268623E-01  7.4667359620660E-02
   187  1.8600000000000E+00  1.9221504241304E-01  7.0306661449808E-02
   188  1.8700000000000E+00  1.9192778433366E-01  6.6136314123876E-02
   189  1.8800000000000E+00  1.9113171279300E-01  6.2151931333518E-02
   190  1.8900000000000E+00  1.8985087999550E-01  5.8349014235364E-02
   191  1.9000000000000E+00  1.8810984554857E-01  5.4722963222300E-02
   192  1.9100000000000E+00  1.8593359672693E-01  5.1269089644629E-02
   193  1.9200000000000E+00  1.8334746965583E-01  4.7982627459896E-02
   194  1.9300000000000E+00  1.8037707160252E-01  4.4858744789808E-02
   195  1.9400000000000E+00  1.7704820455520E-01  4.1892555363424E-02
   196  1.9500000000000E+00  1.7338679025897E-01  3.9079129826509E-02
   197  1.9600000000000E+00  1.6941879686802E-01  3.6413506897723E-02
   198  1.9700000000000E+00  1.6517016736256E-01  3.3890704353124E-02
   199  1.9800000000000E+00  1.6066674986871E-01  3.1505729821252E-02
   200  1.9900000000000E+00  1.5593423000829E-01  2.9253591371950E-02
   201  2.0000000000000E+00  1.5099806539475E-01  2.7129307882890E-02
   202  2.0100000000000E+00  1.4588342238042E-01  2.5127919168667E-02
   203  2.0200000000000E+00  1.4061511514949E-01  2.3244495858187E-02
   204  2.0300000000000E+00  1.3521754723980E-01  2.1474149006962E-02
   205  2.0400000000000E+00  1.2971465556648E-01  1.9812039431807E-02
   206  2.0500000000000E+00  1.2412985700911E-01  1.8253386756314E-02
   207  2.0600000000000E+00  1.1848599761416E-01  1.6793478156356E-02
   208  2.0700000000000E+00  1.1280530445397E-01  1.5427676795758E-02
   209  2.0800000000000E+00  1.0710934017418E-01  1.4151429943104E-02
   210  2.0900000000000E+00  1.0141896025103E-01  1.2960276761534E-02
   211  2.1000000000000E+00  9.5754272972312E-02  1.1849855764147E-02
   212  2.1100000000000E+00  9.0134602145171E-02  1.0815911928527E-02
   213  2.1200000000000E+00  8.4578452527052E-02  9.8543034646296E-03
   214  2.1300000000000E+00  7.9103477967408E-02  8.9610082310660E-03
   215  2.1400000000000E+00  7.3726452240605E-02  8.1321297955744E-03
   216  2.1500000000000E+00  6.8463242543999E-02  7.3639031361070E-03
   217  2.1600000000000E+00  6.3328785627873E-02  6.6526999797752E-03
   218  2.1700000000000E+00  5.8337066518921E-02  5.9950337774493E-03
   219  2.1800000000000E+00  5.3501099793212E-02  5.3875643124891E-03
   220  2.1900000000000E+00  4.8832913350242E-02  4.8271019426311E-03
   221  2.2000000000000E+00  4.4343534635244E-02  4.3106114746618E-03
   222  2.2100000000000E+00  4.0042979253403E-02  3.8352156720210E-03
   223  2.2200000000000E+00  3.5940241916702E-02  3.3981983959666E-03
   224  2.2300000000000E+00  3.2043289661786E-02  2.9970073813985E-03
   225  2.2400000000000E+00  2.8359057819567E-02  2.6292567795174E-03
   226  2.2500000000000E+00  2.4893445241404E-02  2.2927286456821E-03
   227  2.2600000000000E+00  2.1651313287084E-02  1.9853745465408E-03
   228  2.2700000000000E+00  1.8636507474492E-02  1.7053209357205E-03
   229  2.2800000000000E+00  1.5851818094267E-02  1.4508628393418E-03
   230  2.2900000000000E+00  1.3298688400924E-02  1.2203876725222E-03
   231  2.3000000000000E+00  1.0977009998595E-02  1.0123152458994E-03
   232  2.3100000000000E+00  8.8867275898761E-03  8.2548428626285E-04
   233  2.3200000000000E+00  7.0271671653698E-03  6.5900347860031E-04
   234  2.3300000000000E+00  5.3964165948721E-03  5.1210712489061E-04
   235  2.3400000000000E+00  3.9915536239634E-03  3.8419819122787E-04
   236  2.3500000000000E+00  2.8086251107322E-03  2.7483727370025E-04
   237  2.3600000000000E+00  1.8426806543053E-03  1.8374273924792E-04
   238  2.3700000000000E+00  1.0881889041095E-03  1.1083408266194E-04
   239  2.3800000000000E+00  5.3528576440107E-04  5.5796280823753E-05
   240  2.3900000000000E+00  1.8285702509233E-04  1.9563852939623E-05
   241  2.4000000000000E+00  2.4625451782785E-05  2.7206764789260E-06
   242  2.4100000000000E+00 -8.8178274836573E-06 -9.8271532821751E-07
   243  2.4200000000000E+00  9.3317381331419E-07  1.0215758629819E-07
   244  2.43  0.  0.
   245  2.44 -0. -0.
   246  2.45 -0. -0.
   247  2.46 -0. -0.
   248  2.47  0.  0.
   249  2.48  0.  0.
   250  2.49  0.  0.
   251  2.50  0.  0.
   252  2.51  0.  0.
   253  2.52  0.  0.
   254  2.53  0.  0.
   255  2.54  0.  0.
   256  2.55  0.  0.
   257  2.56  0.  0.
   258  2.57  0.  0.
   259  2.58  0.  0.
   260  2.59  0.  0.
   261  2.60  0.  0.
   262  2.61  0.  0.
   263  2.62  0.  0.
   264  2.63  0.  0.
   265  2.64  0.  0.
   266  2.65  0.  0.
   267  2.66  0.  0.
   268  2.67  0.  0.
   269  2.68  0.  0.
   270  2.69  0.  0.
   271  2.70  0.  0.
   272  2.71  0.  0.
   273  2.72  0.  0.
   274  2.73  0.  0.
   275  2.74  0.  0.
   276  2.75  0.  0.
   277  2.76  0.  0.
   278  2.77  0.  0.
   279  2.78  0.  0.
   280  2.79  0.  0.
   281  2.80  0.  0.
   282  2.81  0.  0.
   283  2.82  0.  0.
   284  2.83  0.  0.
   285  2.84  0.  0.
   286  2.85  0.  0.
   287  2.86  0.  0.
   288  2.87  0.  0.
   289  2.88  0.  0.
   290  2.89  0.  0.
   291  2.90  0.  0.
   292  2.91  0.  0.
   293  2.92  0.  0.
   294  2.93  0.  0.
   295  2.94  0.  0.
   296  2.95  0.  0.
   297  2.96  0.  0.
   298  2.97  0.  0.
   299  2.98  0.  0.
   300  2.99  0.  0.
   301  3.00  0.  0.
   302  3.01  0.  0.
   303  3.02  0.  0.
   304  3.03  0.  0.
   305  3.04  0.  0.
   306  3.05  0.  0.
   307  3.06  0.  0.
   308  3.07  0.  0.
   309  3.08  0.  0.
   310  3.09  0.  0.
   311  3.10  0.  0.
   312  3.11  0.  0.
   313  3.12  0.  0.
   314  3.13  0.  0.
   315  3.14  0.  0.
   316  3.15  0.  0.
   317  3.16  0.  0.
   318  3.17  0.  0.
   319  3.18  0.  0.
   320  3.19  0.  0.
   321  3.20  0.  0.
   322  3.21  0.  0.
   323  3.22  0.  0.
   324  3.23  0.  0.
   325  3.24  0.  0.
   326  3.25  0.  0.
   327  3.26  0.  0.
   328  3.27  0.  0.
   329  3.28  0.  0.
   330  3.29  0.  0.
   331  3.30  0.  0.
   332  3.31  0.  0.
   333  3.32  0.  0.
   334  3.33  0.  0.
   335  3.34  0.  0.
   336  3.35  0.  0.
   337  3.36  0.  0.
   338  3.37  0.  0.
   339  3.38  0.  0.
   340  3.39  0.  0.
   341  3.40  0.  0.
   342  3.41  0.  0.
   343  3.42  0.  0.
   344  3.43  0.  0.
   345  3.44  0.  0.
   346  3.45  0.  0.
   347  3.46  0.  0.
   348  3.47  0.  0.
   349  3.48  0.  0.
   350  3.49  0.  0.
   351  3.50  0.  0.
   352  3.51  0.  0.
   353  3.52  0.  0.
   354  3.53  0.  0.
   355  3.54  0.  0.
   356  3.55  0.  0.
   357  3.56  0.  0.
   358  3.57  0.  0.
   359  3.58  0.  0.
   360  3.59  0.  0.
   361  3.60  0.  0.
   362  3.61  0.  0.
   363  3.62  0.  0.
   364  3.63  0.  0.
   365  3.64  0.  0.
   366  3.65  0.  0.
   367  3.66  0.  0.
   368  3.67  0.  0.
   369  3.68  0.  0.
   370  3.69  0.  0.
   371  3.70  0.  0.
   372  3.71  0.  0.
   373  3.72  0.  0.
   374  3.73  0.  0.
   375  3.74  0.  0.
   376  3.75  0.  0.
   377  3.76  0.  0.
   378  3.77  0.  0.
   379  3.78  0.  0.
   380  3.79  0.  0.
   381  3.80  0.  0.
   382  3.81  0.  0.
   383  3.82  0.  0.
   384  3.83  0.  0.
   385  3.84  0.  0.
   386  3.85  0.  0.
   387  3.86  0.  0.
   388  3.87  0.  0.
   389  3.88  0.  0.
   390  3.89  0.  0.
   391  3.90  0.  0.
   392  3.91  0.  0.
   393  3.92  0.  0.
   394  3.93  0.  0.
   395  3.94  0.  0.
   396  3.95  0.  0.
   397  3.96  0.  0.
   398  3.97  0.  0.
   399  3.98  0.  0.
   400  3.99  0.  0.
   401  4.00  0.  0.
   402  4.01  0.  0.
   403  4.02  0.  0.
   404  4.03  0.  0.
   405  4.04  0.  0.
   406  4.05  0.  0.
   407  4.06  0.  0.
   408  4.07  0.  0.
   409  4.08  0.  0.
   410  4.09  0.  0.
   411  4.10  0.  0.
   412  4.11  0.  0.
   413  4.12  0.  0.
   414  4.13  0.  0.
   415  4.14  0.  0.
   416  4.15  0.  0.
   417  4.16  0.  0.
   418  4.17  0.  0.
   419  4.18  0.  0.
   420  4.19  0.  0.
   421  4.20  0.  0.
   422  4.21  0.  0.
   423  4.22  0.  0.
   424  4.23  0.  0.
   425  4.24  0.  0.
   426  4.25  0.  0.
   427  4.26  0.  0.
   428  4.27  0.  0.
   429  4.28  0.  0.
   430  4.29  0.  0.
   431  4.30  0.  0.
   432  4.31  0.  0.
   433  4.32  0.  0.
   434  4.33  0.  0.
   435  4.34  0.  0.
   436  4.35  0.  0.
   437  4.36  0.  0.
   438  4.37  0.  0.
   439  4.38  0.  0.
   440  4.39  0.  0.
   441  4.40  0.  0.
   442  4.41  0.  0.
   443  4.42  0.  0.
   444  4.43  0.  0.
   445  4.44  0.  0.
   446  4.45  0.  0.
   447  4.46  0.  0.
   448  4.47  0.  0.
   449  4.48  0.  0.
   450  4.49  0.  0.
   451  4.50  0.  0.
   452  4.51  0.  0.
   453  4.52  0.  0.
   454  4.53  0.  0.
   455  4.54  0.  0.
   456  4.55  0.  0.
   457  4.56  0.  0.
   458  4.57  0.  0.
   459  4.58  0.  0.
   460  4.59  0.  0.
   461  4.60  0.  0.
   462  4.61  0.  0.
   463  4.62  0.  0.
   464  4.63  0.  0.
   465  4.64  0.  0.
   466  4.65  0.  0.
   467  4.66  0.  0.
   468  4.67  0.  0.
   469  4.68  0.  0.
   470  4.69  0.  0.
   471  4.70  0.  0.
   472  4.71  0.  0.
   473  4.72  0.  0.
   474  4.73  0.  0.
   475  4.74  0.  0.
   476  4.75  0.  0.
   477  4.76  0.  0.
   478  4.77  0.  0.
   479  4.78  0.  0.
   480  4.79  0.  0.
   481  4.80  0.  0.
   482  4.81  0.  0.
   483  4.82  0.  0.
   484  4.83  0.  0.
   485  4.84  0.  0.
   486  4.85  0.  0.
   487  4.86  0.  0.
   488  4.87  0.  0.
   489  4.88  0.  0.
   490  4.89  0.  0.
   491  4.90  0.  0.
   492  4.91  0.  0.
   493  4.92  0.  0.
   494  4.93  0.  0.
   495  4.94  0.  0.
   496  4.95  0.  0.
   497  4.96  0.  0.
   498  4.97  0.  0.
   499  4.98  0.  0.
   500  4.99  0.  0.
   501  5.00  0.  0.
   502  5.01  0.  0.
   503  5.02  0.  0.
   504  5.03  0.  0.
   505  5.04  0.  0.
   506  5.05  0.  0.
   507  5.06  0.  0.
   508  5.07  0.  0.
   509  5.08  0.  0.
   510  5.09  0.  0.
   511  5.10  0.  0.
   512  5.11  0.  0.
   513  5.12  0.  0.
   514  5.13  0.  0.
   515  5.14  0.  0.
   516  5.15  0.  0.
   517  5.16  0.  0.
   518  5.17  0.  0.
   519  5.18  0.  0.
   520  5.19  0.  0.
   521  5.20  0.  0.
   522  5.21  0.  0.
   523  5.22  0.  0.
   524  5.23  0.  0.
   525  5.24  0.  0.
   526  5.25  0.  0.
   527  5.26  0.  0.
   528  5.27  0.  0.
   529  5.28  0.  0.
   530  5.29  0.  0.
   531  5.30  0.  0.
   532  5.31  0.  0.
   533  5.32  0.  0.
   534  5.33  0.  0.
   535  5.34  0.  0.
   536  5.35  0.  0.
   537  5.36  0.  0.
   538  5.37  0.  0.
   539  5.38  0.  0.
   540  5.39  0.  0.
   541  5.40  0.  0.
   542  5.41  0.  0.
   543  5.42  0.  0.
   544  5.43  0.  0.
   545  5.44  0.  0.
   546  5.45  0.  0.
   547  5.46  0.  0.
   548  5.47  0.  0.
   549  5.48  0.  0.
   550  5.49  0.  0.
   551  5.50  0.  0.
   552  5.51  0.  0.
   553  5.52  0.  0.
   554  5.53  0.  0.
   555  5.54  0.  0.
   556  5.55  0.  0.
   557  5.56  0.  0.
   558  5.57  0.  0.
   559  5.58  0.  0.
   560  5.59  0.  0.
   561  5.60  0.  0.
   562  5.61  0.  0.
   563  5.62  0.  0.
   564  5.63  0.  0.
   565  5.64  0.  0.
   566  5.65  0.  0.
   567  5.66  0.  0.
   568  5.67  0.  0.
   569  5.68  0.  0.
   570  5.69  0.  0.
   571  5.70  0.  0.
   572  5.71  0.  0.
   573  5.72  0.  0.
   574  5.73  0.  0.
   575  5.74  0.  0.
   576  5.75  0.  0.
   577  5.76  0.  0.
   578  5.77  0.  0.
   579  5.78  0.  0.
   580  5.79  0.  0.
   581  5.80  0.  0.
   582  5.81  0.  0.
   583  5.82  0.  0.
   584  5.83  0.  0.
   585  5.84  0.  0.
   586  5.85  0.  0.
   587  5.86  0.  0.
   588  5.87  0.  0.
   589  5.88  0.  0.
   590  5.89  0.  0.
   591  5.90  0.  0.
   592  5.91  0.  0.
   593  5.92  0.  0.
   594  5.93  0.  0.
   595  5.94  0.  0.
   596  5.95  0.  0.
   597  5.96  0.  0.
   598  5.97  0.  0.
   599  5.98  0.  0.
   600  5.99  0.  0.
   1                        -1.8479228279288E+00 -2.5928377712254E-01
     1  0.0000000000000E+00  2.4147732424762E-12 -2.4533455128539E-11
     2  1.0000000000000E-02  3.5696178950990E-04 -3.5116651521361E-04
     3  2.0000000000000E-02  1.4274089400330E-03 -1.4037789896922E-03
     4  3.0000000000000E-02  3.2100274058451E-03 -3.1551789901935E-03
     5  4.0000000000000E-02  5.7026291371425E-03 -5.6009450492010E-03
     6  5.0000000000000E-02  8.9021551153342E-03 -8.7349065013565E-03
     7  6.0000000000000E-02  1.2804679593834E-02 -1.2549162764204E-02
     8  7.0000000000000E-02  1.7405415535782E-02 -1.7034107973301E-02
     9  8.0000000000000E-02  2.2698721237723E-02 -2.2178460857228E-02
    10  9.0000000000000E-02  2.8678108125904E-02 -2.7969299713718E-02
    11  1.0000000000000E-01  3.5336249709589E-02 -3.4392102324865E-02
    12  1.1000000000000E-01  4.2664991673476E-02 -4.1430790626699E-02
    13  1.2000000000000E-01  5.0655363089187E-02 -4.9067779927176E-02
    14  1.3000000000000E-01  5.9297588723637E-02 -5.7284032446129E-02
    15  1.4000000000000E-01  6.8581102420113E-02 -6.6059114931740E-02
    16  1.5000000000000E-01  7.8494561525889E-02 -7.5371260090417E-02
    17  1.6000000000000E-01  8.9025862338431E-02 -8.5197431550589E-02
    18  1.7000000000000E-01  1.0016215654044E-01 -9.5513392066454E-02
    19  1.8000000000000E-01  1.1188986859236E-01 -1.0629377465437E-01
    20  1.9000000000000E-01  1.2419471404949E-01 -1.1751215634339E-01
    21  2.0000000000000E-01  1.3706171876931E-01 -1.2914113421187E-01
    22  2.1000000000000E-01  1.5047523897349E-01 -1.4115240337406E-01
    23  2.2000000000000E-01  1.6441898212772E-01 -1.5351683657481E-01
    24  2.3000000000000E-01  1.7887602860156E-01 -1.6620456504660E-01
    25  2.4000000000000E-01  1.9382885406958E-01 -1.7918506028041E-01
    26  2.5000000000000E-01  2.0925935261406E-01 -1.9242721636247E-01
    27  2.6000000000000E-01  2.2514886048924E-01 -2.0589943252984E-01
    28  2.7000000000000E-01  2.4147818050611E-01 -2.1956969560205E-01
    29  2.8000000000000E-01  2.5822760699672E-01 -2.3340566195061E-01
    30  2.9000000000000E-01  2.7537695131631E-01 -2.4737473867657E-01
    31  3.0000000000000E-01  2.9290556784184E-01 -2.6144416367424E-01
    32  3.1000000000000E-01  3.1079238042488E-01 -2.7558108427095E-01
    33  3.2000000000000E-01  3.2901590925753E-01 -2.8975263414456E-01
    34  3.3000000000000E-01  3.4755429810961E-01 -3.0392600823484E-01
    35  3.4000000000000E-01  3.6638534189613E-01 -3.1806853538051E-01
    36  3.5000000000000E-01  3.8548651453410E-01 -3.3214774843033E-01
    37  3.6000000000000E-01  4.0483499704843E-01 -3.4613145159543E-01
    38  3.7000000000000E-01  4.2440770588724E-01 -3.5998778482949E-01
    39  3.8000000000000E-01  4.4418132140742E-01 -3.7368528504362E-01
    40  3.9000000000000E-01  4.6413231649214E-01 -3.8719294398518E-01
    41  4.0000000000000E-01  4.8423698526299E-01 -4.0048026263130E-01
    42  4.1000000000000E-01  5.0447147184983E-01 -4.1351730197186E-01
    43  4.2000000000000E-01  5.2481179918310E-01 -4.2627473007963E-01
    44  4.3000000000000E-01  5.4523389777353E-01 -4.3872386539008E-01
    45  4.4000000000000E-01  5.6571363444589E-01 -4.5083671613715E-01
    46  4.5000000000000E-01  5.8622684099421E-01 -4.6258601591635E-01
    47  4.6000000000000E-01  6.0674934272687E-01 -4.7394525537061E-01
    48  4.7000000000000E-01  6.2725698687140E-01 -4.8488871001895E-01
    49  4.8000000000000E-01  6.4772567080967E-01 -4.9539146427190E-01
    50  4.9000000000000E-01  6.6813137011551E-01 -5.0542943170119E-01
    51  5.0000000000000E-01  6.8845016636769E-01 -5.1497937165417E-01
    52  5.1000000000000E-01  7.0865827471252E-01 -5.2401890232568E-01
    53  5.2000000000000E-01  7.2873207115133E-01 -5.3252651042122E-01
    54  5.3000000000000E-01  7.4864811952906E-01 -5.4048155756574E-01
    55  5.4000000000000E-01  7.6838319820147E-01 -5.4786428363143E-01
    56  5.5000000000000E-01  7.8791432635923E-01 -5.5465580717568E-01
    57  5.6000000000000E-01  8.0721878998815E-01 -5.6083812319695E-01
    58  5.7000000000000E-01  8.2627416744589E-01 -5.6639409843129E-01
    59  5.8000000000000E-01  8.4505835463603E-01 -5.7130746442555E-01
    60  5.9000000000000E-01  8.6354958976144E-01 -5.7556280863519E-01
    61  6.0000000000000E-01  8.8172647763936E-01 -5.7914556380434E-01
    62  6.1000000000000E-01  8.9956801356150E-01 -5.8204199589432E-01
    63  6.2000000000000E-01  9.1705360668279E-01 -5.8423919083258E-01
    64  6.3000000000000E-01  9.3416310292310E-01 -5.8572504035878E-01
    65  6.4000000000000E-01  9.5087680736664E-01 -5.8648822724693E-01
    66  6.5000000000000E-01  9.6717550614400E-01 -5.8651821018293E-01
    67  6.6000000000000E-01  9.8304048778228E-01 -5.8580520857518E-01
    68  6.7000000000000E-01  9.9845356400871E-01 -5.8434018757247E-01
    69  6.8000000000000E-01  1.0133970899935E+00 -5.8211484355765E-01
    70  6.9000000000000E-01  1.0278539840180E+00 -5.7912159037798E-01
    71  7.0000000000000E-01  1.0418077465526E+00 -5.7535354656375E-01