Os    ONCVPSP-4.0.1  r_core=   2.69026   2.70640   2.70640   2.69026
     76.0000     16.0000      230118    zatom,zion,pspd
     8       2   3     4   600     0    pspcod,pspxc,lmax,lloc,mmax,r2well
  5.99000000  5.00000000  0.00000000    rchrg fchrg qchrg
     2     2     2     2     0    nproj
     1     1           extension_switch
   0                        -2.6984975226570E+00 -2.1917692898666E-01
     1  0.0000000000000E+00 -2.4452662117369E-14 -7.7515216467816E-12
     2  1.0000000000000E-02  2.7133208454596E-02  3.6725718621015E-02
     3  2.0000000000000E-02  5.4250006888621E-02  7.3355027274018E-02
     4  3.0000000000000E-02  8.1333999168216E-02  1.0979176950820E-01
     5  4.0000000000000E-02  1.0836881692066E-01  1.4594029522013E-01
     6  5.0000000000000E-02  1.3533813338425E-01  1.8170571211169E-01
     7  6.0000000000000E-02  1.6222567722134E-01  2.1699413509473E-01
     8  7.0000000000000E-02  1.8901524628234E-01  2.5171293296687E-01
     9  8.0000000000000E-02  2.1569072130835E-01  2.8577097169096E-01
    10  9.0000000000000E-02  2.4223607956036E-01  3.1907885362001E-01
    11  1.0000000000000E-01  2.6863540836268E-01  3.5154915202132E-01
    12  1.1000000000000E-01  2.9487291854858E-01  3.8309664026631E-01
    13  1.2000000000000E-01  3.2093295779606E-01  4.1363851506831E-01
    14  1.3000000000000E-01  3.4680002384146E-01  4.4309461316679E-01
    15  1.4000000000000E-01  3.7245877755933E-01  4.7138762087566E-01
    16  1.5000000000000E-01  3.9789405589614E-01  4.9844327593294E-01
    17  1.6000000000000E-01  4.2309088464640E-01  5.2419056111134E-01
    18  1.7000000000000E-01  4.4803449105904E-01  5.4856188907219E-01
    19  1.8000000000000E-01  4.7271031626254E-01  5.7149327797025E-01
    20  1.9000000000000E-01  4.9710402749712E-01  5.9292451734283E-01
    21  2.0000000000000E-01  5.2120153014244E-01  6.1279932384400E-01
    22  2.1000000000000E-01  5.4498897952938E-01  6.3106548641372E-01
    23  2.2000000000000E-01  5.6845279252460E-01  6.4767500050084E-01
    24  2.3000000000000E-01  5.9157965887670E-01  6.6258419099046E-01
    25  2.4000000000000E-01  6.1435655231284E-01  6.7575382351715E-01
    26  2.5000000000000E-01  6.3677074137502E-01  6.8714920387886E-01
    27  2.6000000000000E-01  6.5880979998515E-01  6.9674026529926E-01
    28  2.7000000000000E-01  6.8046161772828E-01  7.0450164332044E-01
    29  2.8000000000000E-01  7.0171440984375E-01  7.1041273814270E-01
    30  2.9000000000000E-01  7.2255672691368E-01  7.1445776426283E-01
    31  3.0000000000000E-01  7.4297746423914E-01  7.1662578729836E-01
    32  3.1000000000000E-01  7.6296587089373E-01  7.1691074792030E-01
    33  3.2000000000000E-01  7.8251155844535E-01  7.1531147285316E-01
    34  3.3000000000000E-01  8.0160450933645E-01  7.1183167293698E-01
    35  3.4000000000000E-01  8.2023508491384E-01  7.0647992828163E-01
    36  3.5000000000000E-01  8.3839403309895E-01  6.9926966057976E-01
    37  3.6000000000000E-01  8.5607249569019E-01  6.9021909267989E-01
    38  3.7000000000000E-01  8.7326201528882E-01  6.7935119555630E-01
    39  3.8000000000000E-01  8.8995454184049E-01  6.6669362284722E-01
    40  3.9000000000000E-01  9.0614243878463E-01  6.5227863316642E-01
    41  4.0000000000000E-01  9.2181848880436E-01  6.3614300042706E-01
    42  4.1000000000000E-01  9.3697589916984E-01  6.1832791244915E-01
    43  4.2000000000000E-01  9.5160830666839E-01  5.9887885815373E-01
    44  4.3000000000000E-01  9.6570978211505E-01  5.7784550367762E-01
    45  4.4000000000000E-01  9.7927483443767E-01  5.5528155777263E-01
    46  4.5000000000000E-01  9.9229841433095E-01  5.3124462688146E-01
    47  4.6000000000000E-01  1.0047759174744E+00  5.0579606031043E-01
    48  4.7000000000000E-01  1.0167031873094E+00  4.7900078594485E-01
    49  4.8000000000000E-01  1.0280765173712E+00  4.5092713697832E-01
    50  4.9000000000000E-01  1.0388926531720E+00  4.2164667015005E-01
    51  5.0000000000000E-01  1.0491487936321E+00  3.9123397600698E-01
    52  5.1000000000000E-01  1.0588425920551E+00  3.5976648172715E-01
    53  5.2000000000000E-01  1.0679721566469E+00  3.2732424706026E-01
    54  5.3000000000000E-01  1.0765360505747E+00  2.9398975395813E-01
    55  5.4000000000000E-01  1.0845332915650E+00  2.5984769048354E-01
    56  5.5000000000000E-01  1.0919633510410E+00  2.2498472959950E-01
    57  5.6000000000000E-01  1.0988261527974E+00  1.8948930345313E-01
    58  5.7000000000000E-01  1.1051220712148E+00  1.5345137377862E-01
    59  5.8000000000000E-01  1.1108519290119E+00  1.1696219905194E-01
    60  5.9000000000000E-01  1.1160169945399E+00  8.0114099036614E-02
    61  6.0000000000000E-01  1.1206189786187E+00  4.3000217364863E-02
    62  6.1000000000000E-01  1.1246600309181E+00  5.7142828007635E-03
    63  6.2000000000000E-01  1.1281427358882E+00 -3.1649630166474E-02
    64  6.3000000000000E-01  1.1310701082406E+00 -6.8997340751963E-02
    65  6.4000000000000E-01  1.1334455879869E+00 -1.0623480068310E-01
    66  6.5000000000000E-01  1.1352730350371E+00 -1.4326833174592E-01
    67  6.6000000000000E-01  1.1365567233657E+00 -1.8000486143640E-01
    68  6.7000000000000E-01  1.1373013347497E+00 -2.1635215609117E-01
    69  6.8000000000000E-01  1.1375119520859E+00 -2.5221905088206E-01
    70  6.9000000000000E-01  1.1371940522950E+00 -2.8751567607034E-01
    71  7.0000000000000E-01  1.1363534988195E+00 -3.2215367892990E-01
    72  7.1000000000000E-01  1.1349965337248E+00 -3.5604644076339E-01
    73  7.2000000000000E-01  1.1331297694114E+00 -3.8910928845186E-01
    74  7.3000000000000E-01  1.1307601799493E+00 -4.2125969999615E-01
    75  7.4000000000000E-01  1.1278950920425E+00 -4.5241750352823E-01
    76  7.5000000000000E-01  1.1245421756367E+00 -4.8250506929086E-01
    77  7.6000000000000E-01  1.1207094341797E+00 -5.1144749410655E-01
    78  7.7000000000000E-01  1.1164051945468E+00 -5.3917277788006E-01
    79  7.8000000000000E-01  1.1116380966441E+00 -5.6561199170323E-01
    80  7.9000000000000E-01  1.1064170827009E+00 -5.9069943715660E-01
    81  8.0000000000000E-01  1.1007513862670E+00 -6.1437279642919E-01
    82  8.1000000000000E-01  1.0946505209258E+00 -6.3657327290505E-01
    83  8.2000000000000E-01  1.0881242687395E+00 -6.5724572189422E-01
    84  8.3000000000000E-01  1.0811826684402E+00 -6.7633877121455E-01
    85  8.4000000000000E-01  1.0738360033828E+00 -6.9380493136105E-01
    86  8.5000000000000E-01  1.0660947892734E+00 -7.0960069502967E-01
    87  8.6000000000000E-01  1.0579697616911E+00 -7.2368662579389E-01
    88  8.7000000000000E-01  1.0494718634188E+00 -7.3602743576328E-01
    89  8.8000000000000E-01  1.0406122315986E+00 -7.4659205208550E-01
    90  8.9000000000000E-01  1.0314021847298E+00 -7.5535367218450E-01
    91  9.0000000000000E-01  1.0218532095267E+00 -7.6228980766031E-01
    92  9.1000000000000E-01  1.0119769476522E+00 -7.6738231680726E-01
    93  9.2000000000000E-01  1.0017851823472E+00 -7.7061742573973E-01
    94  9.3000000000000E-01  9.9128982497096E-01 -7.7198573814635E-01
    95  9.4000000000000E-01  9.8050290147261E-01 -7.7148223372454E-01
    96  9.5000000000000E-01  9.6943653881088E-01 -7.6910625537924E-01
    97  9.6000000000000E-01  9.5810295134045E-01 -7.6486148529944E-01
    98  9.7000000000000E-01  9.4651442718351E-01 -7.5875591005699E-01
    99  9.8000000000000E-01  9.3468331460470E-01 -7.5080177490116E-01
   100  9.9000000000000E-01  9.2262200840794E-01 -7.4101552745160E-01
   101  1.0000000000000E+00  9.1034293637358E-01 -7.2941775102003E-01
   102  1.0100000000000E+00  8.9785854575408E-01 -7.1603308781834E-01
   103  1.0200000000000E+00  8.8518128984664E-01 -7.0089015233690E-01
   104  1.0300000000000E+00  8.7232361466090E-01 -6.8402143520205E-01
   105  1.0400000000000E+00  8.5929794569966E-01 -6.6546319784590E-01
   106  1.0500000000000E+00  8.4611667487050E-01 -6.4525535834436E-01
   107  1.0600000000000E+00  8.3279214754599E-01 -6.2344136880142E-01
   108  1.0700000000000E+00  8.1933664978976E-01 -6.0006808467761E-01
   109  1.0800000000000E+00  8.0576239576561E-01 -5.7518562648047E-01
   110  1.0900000000000E+00  7.9208151534652E-01 -5.4884723425202E-01
   111  1.1000000000000E+00  7.7830604193987E-01 -5.2110911530502E-01
   112  1.1100000000000E+00  7.6444790054516E-01 -4.9203028567471E-01
   113  1.1200000000000E+00  7.5051889605984E-01 -4.6167240576604E-01
   114  1.1300000000000E+00  7.3653070184849E-01 -4.3009961068879E-01
   115  1.1400000000000E+00  7.2249484859033E-01 -3.9737833578287E-01
   116  1.1500000000000E+00  7.0842271341920E-01 -3.6357713784570E-01
   117  1.1600000000000E+00  6.9432550937008E-01 -3.2876651258030E-01
   118  1.1700000000000E+00  6.8021427514517E-01 -2.9301870878904E-01
   119  1.1800000000000E+00  6.6609986521255E-01 -2.5640753984177E-01
   120  1.1900000000000E+00  6.5199294024941E-01 -2.1900819295020E-01
   121  1.2000000000000E+00  6.3790395794135E-01 -1.8089703678098E-01
   122  1.2100000000000E+00  6.2384316414891E-01 -1.4215142793986E-01
   123  1.2200000000000E+00  6.0982058445127E-01 -1.0284951685723E-01
   124  1.2300000000000E+00  5.9584601607702E-01 -6.3070053601550E-02
   125  1.2400000000000E+00  5.8192902023070E-01 -2.2892194142539E-02
   126  1.2500000000000E+00  5.6807891482349E-01  1.7604692420634E-02
   127  1.2600000000000E+00  5.5430476761541E-01  5.8341215159009E-02
   128  1.2700000000000E+00  5.4061538977588E-01  9.9238150643203E-02
   129  1.2800000000000E+00  5.2701932986865E-01  1.4021662981526E-01
   130  1.2900000000000E+00  5.1352486826642E-01  1.8119832192754E-01
   131  1.3000000000000E+00  5.0014001199951E-01  2.2210561508668E-01
   132  1.3100000000000E+00  4.8687249004257E-01  2.6286179295480E-01
   133  1.3200000000000E+00  4.7372974904211E-01  3.0339120717608E-01
   134  1.3300000000000E+00  4.6071894948715E-01  3.4361944511317E-01
   135  1.3400000000000E+00  4.4784696232441E-01  3.8347349249603E-01
   136  1.3500000000000E+00  4.3512036601860E-01  4.2288189060405E-01
   137  1.3600000000000E+00  4.2254544405789E-01  4.6177488762228E-01
   138  1.3700000000000E+00  4.1012818290339E-01  5.0008458383296E-01
   139  1.3800000000000E+00  3.9787427038121E-01  5.3774507032451E-01
   140  1.3900000000000E+00  3.8578909451450E-01  5.7469256092239E-01
   141  1.4000000000000E+00  3.7387774279244E-01  6.1086551706858E-01
   142  1.4100000000000E+00  3.6214500187208E-01  6.4620476539936E-01
   143  1.4200000000000E+00  3.5059535770851E-01  6.8065360779504E-01
   144  1.4300000000000E+00  3.3923299610797E-01  7.1415792369872E-01
   145  1.4400000000000E+00  3.2806180369768E-01  7.4666626452566E-01
   146  1.4500000000000E+00  3.1708536930584E-01  7.7812994000947E-01
   147  1.4600000000000E+00  3.0630698574411E-01  8.0850309635557E-01
   148  1.4700000000000E+00  2.9572965198465E-01  8.3774278609756E-01
   149  1.4800000000000E+00  2.8535607572297E-01  8.6580902957656E-01
   150  1.4900000000000E+00  2.7518867631707E-01  8.9266486798838E-01
   151  1.5000000000000E+00  2.6522958809320E-01  9.1827640796802E-01
   152  1.5100000000000E+00  2.5548066400757E-01  9.4261285770515E-01
   153  1.5200000000000E+00  2.4594347965295E-01  9.6564655460846E-01
   154  1.5300000000000E+00  2.3661933759872E-01  9.8735298456025E-01
   155  1.5400000000000E+00  2.2750927205233E-01  1.0077107928262E+00
   156  1.5500000000000E+00  2.1861405382946E-01  1.0267017867081E+00
   157  1.5600000000000E+00  2.0993419562027E-01  1.0443109300482E+00
   158  1.5700000000000E+00  2.0146995753815E-01  1.0605263297193E+00
   159  1.5800000000000E+00  1.9322135293741E-01  1.0753392142494E+00
   160  1.5900000000000E+00  1.8518815448579E-01  1.0887439047572E+00
   161  1.6000000000000E+00  1.7736990047755E-01  1.1007377783879E+00
   162  1.6100000000000E+00  1.6976590137239E-01  1.1113212244623E+00
   163  1.6200000000000E+00  1.6237524654544E-01  1.1204975935661E+00
   164  1.6300000000000E+00  1.5519681123322E-01  1.1282731398263E+00
   165  1.6400000000000E+00  1.4822926366027E-01  1.1346569566352E+00
   166  1.6500000000000E+00  1.4147107233118E-01  1.1396609060991E+00
   167  1.6600000000000E+00  1.3492051347236E-01  1.1432995425018E+00
   168  1.6700000000000E+00  1.2857567860814E-01  1.1455900300860E+00
   169  1.6800000000000E+00  1.2243448225544E-01  1.1465520554679E+00
   170  1.6900000000000E+00  1.1649466972147E-01  1.1462077350101E+00
   171  1.7000000000000E+00  1.1075382498887E-01  1.1445815174891E+00
   172  1.7100000000000E+00  1.0520937867259E-01  1.1417000824006E+00
   173  1.7200000000000E+00  9.9858616033294E-02  1.1375922342533E+00
   174  1.7300000000000E+00  9.4698685031699E-02  1.1322887932099E+00
   175  1.7400000000000E+00  8.9726604408853E-02  1.1258224824359E+00
   176  1.7500000000000E+00  8.4939271777218E-02  1.1182278125239E+00
   177  1.7600000000000E+00  8.0333471707819E-02  1.1095409633617E+00
   178  1.7700000000000E+00  7.5905883798895E-02  1.0997996638148E+00
   179  1.7800000000000E+00  7.1653090711751E-02  1.0890430695952E+00
   180  1.7900000000000E+00  6.7571586159832E-02  1.0773116396859E+00
   181  1.8000000000000E+00  6.3657782837346E-02  1.0646470116909E+00
   182  1.8100000000000E+00  5.9908020274115E-02  1.0510918764761E+00
   183  1.8200000000000E+00  5.6318572603705E-02  1.0366898524643E+00
   184  1.8300000000000E+00  5.2885656232285E-02  1.0214853599402E+00
   185  1.8400000000000E+00  4.9605437396084E-02  1.0055234957190E+00
   186  1.8500000000000E+00  4.6474039595740E-02  9.8884990852170E-01
   187  1.8600000000000E+00  4.3487550896322E-02  9.7151067539489E-01
   188  1.8700000000000E+00  4.0642031082244E-02  9.5355217950437E-01
   189  1.8800000000000E+00  3.7933518656830E-02  9.3502098962042E-01
   190  1.8900000000000E+00  3.5358037676761E-02  9.1596374160451E-01
   191  1.9000000000000E+00  3.2911604412167E-02  8.9642702219514E-01
   192  1.9100000000000E+00  3.0590233823699E-02  8.7645725537881E-01
   193  1.9200000000000E+00  2.8389945848409E-02  8.5610059162044E-01
   194  1.9300000000000E+00  2.6306771486868E-02  8.3540280021343E-01
   195  1.9400000000000E+00  2.4336758684511E-02  8.1440916499711E-01
   196  1.9500000000000E+00  2.2475978000763E-02  7.9316438367436E-01
   197  1.9600000000000E+00  2.0720528060091E-02  7.7171247094816E-01
   198  1.9700000000000E+00  1.9066540779707E-02  7.5009666568048E-01
   199  1.9800000000000E+00  1.7510186369259E-02  7.2835934226160E-01
   200  1.9900000000000E+00  1.6047678098391E-02  7.0654192636255E-01
   201  2.0000000000000E+00  1.4675276828694E-02  6.8468481522694E-01
   202  2.0100000000000E+00  1.3389295307134E-02  6.6282730264263E-01
   203  2.0200000000000E+00  1.2186102218636E-02  6.4100750871706E-01
   204  2.0300000000000E+00  1.1062125996077E-02  6.1926231456385E-01
   205  2.0400000000000E+00  1.0013858386552E-02  5.9762730199156E-01
   206  2.0500000000000E+00  9.0378577733078E-03  5.7613669826904E-01
   207  2.0600000000000E+00  8.1307522533123E-03  5.5482332602568E-01
   208  2.0700000000000E+00  7.2892424710220E-03  5.3371855832751E-01
   209  2.0800000000000E+00  6.5101042094016E-03  5.1285227895492E-01
   210  2.0900000000000E+00  5.7901907398134E-03  4.9225284789093E-01
   211  2.1000000000000E+00  5.1264349329156E-03  4.7194707201313E-01
   212  2.1100000000000E+00  4.5158511331848E-03  4.5196018096782E-01
   213  2.1200000000000E+00  3.9555368002226E-03  4.3231580818788E-01
   214  2.1300000000000E+00  3.4426739204368E-03  4.1303597700240E-01
   215  2.1400000000000E+00  2.9745301931695E-03  3.9414109177086E-01
   216  2.1500000000000E+00  2.5484599958012E-03  3.7564993396043E-01
   217  2.1600000000000E+00  2.1619051327192E-03  3.5757966307264E-01
   218  2.1700000000000E+00  1.8123953735426E-03  3.3994582231032E-01
   219  2.1800000000000E+00  1.4975487863046E-03  3.2276234886481E-01
   220  2.1900000000000E+00  1.2150718716950E-03  3.0604158869051E-01
   221  2.2000000000000E+00  9.6275950478022E-04  2.8979431562324E-01
   222  2.2100000000000E+00  7.3849469096880E-04  2.7402975468696E-01
   223  2.2200000000000E+00  5.4024814328252E-04  2.5875560942377E-01
   224  2.2300000000000E+00  3.6607768827032E-04  2.4397809307206E-01
   225  2.2400000000000E+00  2.1412750813627E-04  2.2970196340967E-01
   226  2.2500000000000E+00  8.2627226906171E-05  2.1593056106991E-01
   227  2.2600000000000E+00 -3.0109151329266E-05  2.0266585113068E-01
   228  2.2700000000000E+00 -1.2568444388911E-04  1.8990846777039E-01
   229  2.2800000000000E+00 -2.0561962234315E-04  1.7765776177873E-01
   230  2.2900000000000E+00 -2.7135526819748E-04  1.6591185070421E-01
   231  2.3000000000000E+00 -3.2425314281190E-04  1.5466767141599E-01
   232  2.3100000000000E+00 -3.6559786285222E-04  1.4392103485363E-01
   233  2.3200000000000E+00 -3.9659867251426E-04  1.3366668273579E-01
   234  2.3300000000000E+00 -4.1839130370420E-04  1.2389834599553E-01
   235  2.3400000000000E+00 -4.3203991536099E-04  1.1460880470863E-01
   236  2.3500000000000E+00 -4.3853910312098E-04  1.0578994928089E-01
   237  2.3600000000000E+00 -4.3881597051768E-04  9.7432842659026E-02
   238  2.3700000000000E+00 -4.3373225300336E-04  8.9527783331284E-02
   239  2.3800000000000E+00 -4.2408648615160E-04  8.2064368884714E-02
   240  2.3900000000000E+00 -4.1061620946916E-04  7.5031559887710E-02
   241  2.4000000000000E+00 -3.9400019738065E-04  6.8417743868954E-02
   242  2.4100000000000E+00 -3.7486070910999E-04  6.2210799167775E-02
   243  2.4200000000000E+00 -3.5376574933217E-04  5.6398158434521E-02
   244  2.4300000000000E+00 -3.3123133159169E-04  5.0966871562539E-02
   245  2.4400000000000E+00 -3.0772373678329E-04  4.5903667840889E-02
   246  2.4500000000000E+00 -2.8366175919647E-04  4.1195017122464E-02
   247  2.4600000000000E+00 -2.5941893269601E-04  3.6827189804176E-02
   248  2.4700000000000E+00 -2.3532573010356E-04  3.2786315428585E-02
   249  2.4800000000000E+00 -2.1167172902753E-04  2.9058439721733E-02
   250  2.4900000000000E+00 -1.8870773750581E-04  2.5629579885207E-02
   251  2.5000000000000E+00 -1.6664787337549E-04  2.2485777975223E-02
   252  2.5100000000000E+00 -1.4567146382474E-04  1.9613152659400E-02
   253  2.5200000000000E+00 -1.2592573899297E-04  1.6997945686740E-02
   254  2.5300000000000E+00 -1.0752645436901E-04  1.4626573177244E-02
   255  2.5400000000000E+00 -9.0559800129467E-05  1.2485671352862E-02
   256  2.5500000000000E+00 -7.5086371305463E-05  1.0562122093314E-02
   257  2.5600000000000E+00 -6.1162500962618E-05  8.8430345322897E-03
   258  2.5700000000000E+00 -4.8881033207823E-05  7.3156647478240E-03
   259  2.5800000000000E+00 -3.8247853017482E-05  5.9678833536272E-03
   260  2.5900000000000E+00 -2.9178314453181E-05  4.7882046383945E-03
   261  2.6000000000000E+00 -2.1590943501619E-05  3.7654512822514E-03
   262  2.6100000000000E+00 -1.5388745772473E-05  2.8888627563682E-03
   263  2.6200000000000E+00 -1.0461144780388E-05  2.1481193361229E-03
   264  2.6300000000000E+00 -6.6855333977381E-06  1.5333599439727E-03
   265  2.6400000000000E+00 -3.9279529187840E-06  1.0352012367404E-03
   266  2.6500000000000E+00 -2.0434132190448E-06  6.4495059745703E-04
   267  2.6600000000000E+00 -8.7814205270957E-07  3.5326902777430E-04
   268  2.6700000000000E+00 -2.6669539459971E-07  1.5291214536549E-04
   269  2.6800000000000E+00 -3.5200525657191E-08  4.1684505164715E-05
   270  2.6900000000000E+00  1.1210816812525E-09  4.3903186877359E-07
   271  2.7000000000000E+00 -5.8141195447307E-10 -3.5843621948987E-06
   272  2.7100000000000E+00 -6.1918545050219E-10  1.0218980044280E-06
   273  2.72 -0.  0.
   274  2.73  0. -0.
   275  2.74 -0. -0.
   276  2.75 -0. -0.
   277  2.76  0.  0.
   278  2.77  0.  0.
   279  2.78  0.  0.
   280  2.79  0.  0.
   281  2.80  0.  0.
   282  2.81  0.  0.
   283  2.82  0.  0.
   284  2.83  0.  0.
   285  2.84  0.  0.
   286  2.85  0.  0.
   287  2.86  0.  0.
   288  2.87  0.  0.
   289  2.88  0.  0.
   290  2.89  0.  0.
   291  2.90  0.  0.
   292  2.91  0.  0.
   293  2.92  0.  0.
   294  2.93  0.  0.
   295  2.94  0.  0.
   296  2.95  0.  0.
   297  2.96  0.  0.
   298  2.97  0.  0.
   299  2.98  0.  0.
   300  2.99  0.  0.
   301  3.00  0.  0.
   302  3.01  0.  0.
   303  3.02  0.  0.
   304  3.03  0.  0.
   305  3.04  0.  0.
   306  3.05  0.  0.
   307  3.06  0.  0.
   308  3.07  0.  0.
   309  3.08  0.  0.
   310  3.09  0.  0.
   311  3.10  0.  0.
   312  3.11  0.  0.
   313  3.12  0.  0.
   314  3.13  0.  0.
   315  3.14  0.  0.
   316  3.15  0.  0.
   317  3.16  0.  0.
   318  3.17  0.  0.
   319  3.18  0.  0.
   320  3.19  0.  0.
   321  3.20  0.  0.
   322  3.21  0.  0.
   323  3.22  0.  0.
   324  3.23  0.  0.
   325  3.24  0.  0.
   326  3.25  0.  0.
   327  3.26  0.  0.
   328  3.27  0.  0.
   329  3.28  0.  0.
   330  3.29  0.  0.
   331  3.30  0.  0.
   332  3.31  0.  0.
   333  3.32  0.  0.
   334  3.33  0.  0.
   335  3.34  0.  0.
   336  3.35  0.  0.
   337  3.36  0.  0.
   338  3.37  0.  0.
   339  3.38  0.  0.
   340  3.39  0.  0.
   341  3.40  0.  0.
   342  3.41  0.  0.
   343  3.42  0.  0.
   344  3.43  0.  0.
   345  3.44  0.  0.
   346  3.45  0.  0.
   347  3.46  0.  0.
   348  3.47  0.  0.
   349  3.48  0.  0.
   350  3.49  0.  0.
   351  3.50  0.  0.
   352  3.51  0.  0.
   353  3.52  0.  0.
   354  3.53  0.  0.
   355  3.54  0.  0.
   356  3.55  0.  0.
   357  3.56  0.  0.
   358  3.57  0.  0.
   359  3.58  0.  0.
   360  3.59  0.  0.
   361  3.60  0.  0.
   362  3.61  0.  0.
   363  3.62  0.  0.
   364  3.63  0.  0.
   365  3.64  0.  0.
   366  3.65  0.  0.
   367  3.66  0.  0.
   368  3.67  0.  0.
   369  3.68  0.  0.
   370  3.69  0.  0.
   371  3.70  0.  0.
   372  3.71  0.  0.
   373  3.72  0.  0.
   374  3.73  0.  0.
   375  3.74  0.  0.
   376  3.75  0.  0.
   377  3.76  0.  0.
   378  3.77  0.  0.
   379  3.78  0.  0.
   380  3.79  0.  0.
   381  3.80  0.  0.
   382  3.81  0.  0.
   383  3.82  0.  0.
   384  3.83  0.  0.
   385  3.84  0.  0.
   386  3.85  0.  0.
   387  3.86  0.  0.
   388  3.87  0.  0.
   389  3.88  0.  0.
   390  3.89  0.  0.
   391  3.90  0.  0.
   392  3.91  0.  0.
   393  3.92  0.  0.
   394  3.93  0.  0.
   395  3.94  0.  0.
   396  3.95  0.  0.
   397  3.96  0.  0.
   398  3.97  0.  0.
   399  3.98  0.  0.
   400  3.99  0.  0.
   401  4.00  0.  0.
   402  4.01  0.  0.
   403  4.02  0.  0.
   404  4.03  0.  0.
   405  4.04  0.  0.
   406  4.05  0.  0.
   407  4.06  0.  0.
   408  4.07  0.  0.
   409  4.08  0.  0.
   410  4.09  0.  0.
   411  4.10  0.  0.
   412  4.11  0.  0.
   413  4.12  0.  0.
   414  4.13  0.  0.
   415  4.14  0.  0.
   416  4.15  0.  0.
   417  4.16  0.  0.
   418  4.17  0.  0.
   419  4.18  0.  0.
   420  4.19  0.  0.
   421  4.20  0.  0.
   422  4.21  0.  0.
   423  4.22  0.  0.
   424  4.23  0.  0.
   425  4.24  0.  0.
   426  4.25  0.  0.
   427  4.26  0.  0.
   428  4.27  0.  0.
   429  4.28  0.  0.
   430  4.29  0.  0.
   431  4.30  0.  0.
   432  4.31  0.  0.
   433  4.32  0.  0.
   434  4.33  0.  0.
   435  4.34  0.  0.
   436  4.35  0.  0.
   437  4.36  0.  0.
   438  4.37  0.  0.
   439  4.38  0.  0.
   440  4.39  0.  0.
   441  4.40  0.  0.
   442  4.41  0.  0.
   443  4.42  0.  0.
   444  4.43  0.  0.
   445  4.44  0.  0.
   446  4.45  0.  0.
   447  4.46  0.  0.
   448  4.47  0.  0.
   449  4.48  0.  0.
   450  4.49  0.  0.
   451  4.50  0.  0.
   452  4.51  0.  0.
   453  4.52  0.  0.
   454  4.53  0.  0.
   455  4.54  0.  0.
   456  4.55  0.  0.
   457  4.56  0.  0.
   458  4.57  0.  0.
   459  4.58  0.  0.
   460  4.59  0.  0.
   461  4.60  0.  0.
   462  4.61  0.  0.
   463  4.62  0.  0.
   464  4.63  0.  0.
   465  4.64  0.  0.
   466  4.65  0.  0.
   467  4.66  0.  0.
   468  4.67  0.  0.
   469  4.68  0.  0.
   470  4.69  0.  0.
   471  4.70  0.  0.
   472  4.71  0.  0.
   473  4.72  0.  0.
   474  4.73  0.  0.
   475  4.74  0.  0.
   476  4.75  0.  0.
   477  4.76  0.  0.
   478  4.77  0.  0.
   479  4.78  0.  0.
   480  4.79  0.  0.
   481  4.80  0.  0.
   482  4.81  0.  0.
   483  4.82  0.  0.
   484  4.83  0.  0.
   485  4.84  0.  0.
   486  4.85  0.  0.
   487  4.86  0.  0.
   488  4.87  0.  0.
   489  4.88  0.  0.
   490  4.89  0.  0.
   491  4.90  0.  0.
   492  4.91  0.  0.
   493  4.92  0.  0.
   494  4.93  0.  0.
   495  4.94  0.  0.
   496  4.95  0.  0.
   497  4.96  0.  0.
   498  4.97  0.  0.
   499  4.98  0.  0.
   500  4.99  0.  0.
   501  5.00  0.  0.
   502  5.01  0.  0.
   503  5.02  0.  0.
   504  5.03  0.  0.
   505  5.04  0.  0.
   506  5.05  0.  0.
   507  5.06  0.  0.
   508  5.07  0.  0.
   509  5.08  0.  0.
   510  5.09  0.  0.
   511  5.10  0.  0.
   512  5.11  0.  0.
   513  5.12  0.  0.
   514  5.13  0.  0.
   515  5.14  0.  0.
   516  5.15  0.  0.
   517  5.16  0.  0.
   518  5.17  0.  0.
   519  5.18  0.  0.
   520  5.19  0.  0.
   521  5.20  0.  0.
   522  5.21  0.  0.
   523  5.22  0.  0.
   524  5.23  0.  0.
   525  5.24  0.  0.
   526  5.25  0.  0.
   527  5.26  0.  0.
   528  5.27  0.  0.
   529  5.28  0.  0.
   530  5.29  0.  0.
   531  5.30  0.  0.
   532  5.31  0.  0.
   533  5.32  0.  0.
   534  5.33  0.  0.
   535  5.34  0.  0.
   536  5.35  0.  0.
   537  5.36  0.  0.
   538  5.37  0.  0.
   539  5.38  0.  0.
   540  5.39  0.  0.
   541  5.40  0.  0.
   542  5.41  0.  0.
   543  5.42  0.  0.
   544  5.43  0.  0.
   545  5.44  0.  0.
   546  5.45  0.  0.
   547  5.46  0.  0.
   548  5.47  0.  0.
   549  5.48  0.  0.
   550  5.49  0.  0.
   551  5.50  0.  0.
   552  5.51  0.  0.
   553  5.52  0.  0.
   554  5.53  0.  0.
   555  5.54  0.  0.
   556  5.55  0.  0.
   557  5.56  0.  0.
   558  5.57  0.  0.
   559  5.58  0.  0.
   560  5.59  0.  0.
   561  5.60  0.  0.
   562  5.61  0.  0.
   563  5.62  0.  0.
   564  5.63  0.  0.
   565  5.64  0.  0.
   566  5.65  0.  0.
   567  5.66  0.  0.
   568  5.67  0.  0.
   569  5.68  0.  0.
   570  5.69  0.  0.
   571  5.70  0.  0.
   572  5.71  0.  0.
   573  5.72  0.  0.
   574  5.73  0.  0.
   575  5.74  0.  0.
   576  5.75  0.  0.
   577  5.76  0.  0.
   578  5.77  0.  0.
   579  5.78  0.  0.
   580  5.79  0.  0.
   581  5.80  0.  0.
   582  5.81  0.  0.
   583  5.82  0.  0.
   584  5.83  0.  0.
   585  5.84  0.  0.
   586  5.85  0.  0.
   587  5.86  0.  0.
   588  5.87  0.  0.
   589  5.88  0.  0.
   590  5.89  0.  0.
   591  5.90  0.  0.
   592  5.91  0.  0.
   593  5.92  0.  0.
   594  5.93  0.  0.
   595  5.94  0.  0.
   596  5.95  0.  0.
   597  5.96  0.  0.
   598  5.97  0.  0.
   599  5.98  0.  0.
   600  5.99  0.  0.
   1                        -2.7160613352208E+00 -5.3582400890474E-01
     1  0.0000000000000E+00  4.5045425722812E-12 -1.8052587202888E-11
     2  1.0000000000000E-02  4.3095987832707E-04 -4.2247783256837E-04
     3  2.0000000000000E-02  1.7232029877167E-03 -1.6888437862567E-03
     4  3.0000000000000E-02  3.8748208227608E-03 -3.7958978770794E-03
     5  4.0000000000000E-02  6.8826361100028E-03 -6.7383156156545E-03
     6  5.0000000000000E-02  1.0742208153105E-02 -1.0508661200063E-02
     7  6.0000000000000E-02  1.5447840299788E-02 -1.5097405919822E-02
     8  7.0000000000000E-02  2.0992589514307E-02 -2.0492951705495E-02
     9  8.0000000000000E-02  2.7368278034706E-02 -2.6681659740417E-02
    10  9.0000000000000E-02  3.4565507089627E-02 -3.3647884033384E-02
    11  1.0000000000000E-01  4.2573672645067E-02 -4.1374009834333E-02
    12  1.1000000000000E-01  5.1380983147254E-02 -4.9840496758738E-02
    13  1.2000000000000E-01  6.0974479223595E-02 -5.9025926470964E-02
    14  1.3000000000000E-01  7.1340055299723E-02 -6.8907054762337E-02
    15  1.4000000000000E-01  8.2462483086746E-02 -7.9458867846065E-02
    16  1.5000000000000E-01  9.4325436889114E-02 -9.0654642678460E-02
    17  1.6000000000000E-01  1.0691152067999E-01 -1.0246601110457E-01
    18  1.7000000000000E-01  1.2020229688768E-01 -1.1486302761586E-01
    19  1.8000000000000E-01  1.3417831683335E-01 -1.2781424049850E-01
    20  1.9000000000000E-01  1.4881915275770E-01 -1.4128676614288E-01
    21  2.0000000000000E-01  1.6410343137081E-01 -1.5524636627816E-01
    22  2.1000000000000E-01  1.8000886885759E-01 -1.6965752789056E-01
    23  2.2000000000000E-01  1.9651230726832E-01 -1.8448354557954E-01
    24  2.3000000000000E-01  2.1358975222189E-01 -1.9968660610356E-01
    25  2.4000000000000E-01  2.3121641184745E-01 -2.1522787486519E-01
    26  2.5000000000000E-01  2.4936673688839E-01 -2.3106758408511E-01
    27  2.6000000000000E-01  2.6801446189107E-01 -2.4716512241543E-01
    28  2.7000000000000E-01  2.8713264739964E-01 -2.6347912574447E-01
    29  2.8000000000000E-01  3.0669372307693E-01 -2.7996756894865E-01
    30  2.9000000000000E-01  3.2666953167090E-01 -2.9658785835090E-01
    31  3.0000000000000E-01  3.4703137374509E-01 -3.1329692465041E-01
    32  3.1000000000000E-01  3.6775005309152E-01 -3.3005131609443E-01
    33  3.2000000000000E-01  3.8879592274391E-01 -3.4680729166986E-01
    34  3.3000000000000E-01  4.1013893150898E-01 -3.6352091410004E-01
    35  3.4000000000000E-01  4.3174867093416E-01 -3.8014814244023E-01
    36  3.5000000000000E-01  4.5359442262971E-01 -3.9664492407456E-01
    37  3.6000000000000E-01  4.7564520586410E-01 -4.1296728592635E-01
    38  3.7000000000000E-01  4.9786982535200E-01 -4.2907142470359E-01
    39  3.8000000000000E-01  5.2023691915485E-01 -4.4491379601146E-01
    40  3.9000000000000E-01  5.4271500661496E-01 -4.6045120217395E-01
    41  4.0000000000000E-01  5.6527253624503E-01 -4.7564087861724E-01
    42  4.1000000000000E-01  5.8787793349603E-01 -4.9044057867765E-01
    43  4.2000000000000E-01  6.1049964832759E-01 -5.0480865670734E-01
    44  4.3000000000000E-01  6.3310620250644E-01 -5.1870414936129E-01
    45  4.4000000000000E-01  6.5566623655960E-01 -5.3208685495859E-01
    46  4.5000000000000E-01  6.7814855631056E-01 -5.4491741082088E-01
    47  4.6000000000000E-01  7.0052217892822E-01 -5.5715736850000E-01
    48  4.7000000000000E-01  7.2275637841994E-01 -5.6876926681507E-01
    49  4.8000000000000E-01  7.4482073050136E-01 -5.7971670262813E-01
    50  4.9000000000000E-01  7.6668515677776E-01 -5.8996439929419E-01
    51  5.0000000000000E-01  7.8831996817293E-01 -5.9947827272903E-01