Ir    ONCVPSP-4.0.1  r_core=   2.54643   2.56171   2.60810   2.57708
     77.0000     17.0000      230118    zatom,zion,pspd
     8       2   3     4   500     0    pspcod,pspxc,lmax,lloc,mmax,r2well
  4.99000000  5.00000000  0.00000000    rchrg fchrg qchrg
     2     2     2     2     0    nproj
     1     1           extension_switch
   0                        -2.7419006306232E+00 -1.4260925530096E-01
     1  0.0000000000000E+00 -1.2170819907453E-13 -1.6554535520186E-12
     2  1.0000000000000E-02  2.8539542251626E-02  3.3500291450863E-02
     3  2.0000000000000E-02  5.7060224447167E-02  6.6921514972222E-02
     4  3.0000000000000E-02  8.5543205057284E-02  1.0018477998953E-01
     5  4.0000000000000E-02  1.1396967958363E-01  1.3321155028328E-01
     6  5.0000000000000E-02  1.4232089901806E-01  1.6592382027962E-01
     7  6.0000000000000E-02  1.7057818823446E-01  1.9824429027796E-01
     8  7.0000000000000E-02  1.9872296429080E-01  2.3009654026292E-01
     9  8.0000000000000E-02  2.2673675461921E-01  2.6140520194989E-01
    10  9.0000000000000E-02  2.5460121508210E-01  2.9209612871536E-01
    11  1.0000000000000E-01  2.8229814787239E-01  3.2209656306568E-01
    12  1.1000000000000E-01  3.0980951923627E-01  3.5133530130090E-01
    13  1.2000000000000E-01  3.3711747699700E-01  3.7974285503359E-01
    14  1.3000000000000E-01  3.6420436785876E-01  4.0725160922674E-01
    15  1.4000000000000E-01  3.9105275446968E-01  4.3379597641846E-01
    16  1.5000000000000E-01  4.1764543222353E-01  4.5931254680707E-01
    17  1.6000000000000E-01  4.4396544578003E-01  4.8374023387452E-01
    18  1.7000000000000E-01  4.6999610528400E-01  5.0702041523269E-01
    19  1.8000000000000E-01  4.9572100226409E-01  5.2909706838324E-01
    20  1.9000000000000E-01  5.2112402519223E-01  5.4991690108889E-01
    21  2.0000000000000E-01  5.4618937468532E-01  5.6942947606146E-01
    22  2.1000000000000E-01  5.7090157833137E-01  5.8758732968037E-01
    23  2.2000000000000E-01  5.9524550512259E-01  6.0434608446427E-01
    24  2.3000000000000E-01  6.1920637947876E-01  6.1966455502762E-01
    25  2.4000000000000E-01  6.4276979484431E-01  6.3350484726476E-01
    26  2.5000000000000E-01  6.6592172684371E-01  6.4583245051422E-01
    27  2.6000000000000E-01  6.8864854597986E-01  6.5661632246812E-01
    28  2.7000000000000E-01  7.1093702986107E-01  6.6582896660339E-01
    29  2.8000000000000E-01  7.3277437494279E-01  6.7344650192447E-01
    30  2.9000000000000E-01  7.5414820777089E-01  6.7944872482095E-01
    31  3.0000000000000E-01  7.7504659571399E-01  6.8381916285776E-01
    32  3.1000000000000E-01  7.9545805717299E-01  6.8654512033047E-01
    33  3.2000000000000E-01  8.1537157125668E-01  6.8761771543423E-01
    34  3.3000000000000E-01  8.3477658691309E-01  6.8703190891093E-01
    35  3.4000000000000E-01  8.5366303150677E-01  6.8478652405651E-01
    36  3.5000000000000E-01  8.7202131883313E-01  6.8088425798781E-01
    37  3.6000000000000E-01  8.8984235656170E-01  6.7533168408675E-01
    38  3.7000000000000E-01  9.0711755310077E-01  6.6813924555876E-01
    39  3.8000000000000E-01  9.2383882387673E-01  6.5932124006152E-01
    40  3.9000000000000E-01  9.3999859702232E-01  6.4889579538042E-01
    41  4.0000000000000E-01  9.5558981846856E-01  6.3688483614756E-01
    42  4.1000000000000E-01  9.7060595643602E-01  6.2331404162215E-01
    43  4.2000000000000E-01  9.8504100532193E-01  6.0821279457155E-01
    44  4.3000000000000E-01  9.9888948898031E-01  5.9161412131404E-01
    45  4.4000000000000E-01  1.0121464633931E+00  5.7355462300650E-01
    46  4.5000000000000E-01  1.0248075187312E+00  5.5407439828228E-01
    47  4.6000000000000E-01  1.0368687808049E+00  5.3321695736751E-01
    48  4.7000000000000E-01  1.0483269119041E+00  5.1102912782625E-01
    49  4.8000000000000E-01  1.0591791110296E+00  4.8756095210799E-01
    50  4.9000000000000E-01  1.0694231135172E+00  4.6286557709330E-01
    51  5.0000000000000E-01  1.0790571900576E+00  4.3699913585632E-01
    52  5.1000000000000E-01  1.0880801451151E+00  4.1002062188496E-01
    53  5.2000000000000E-01  1.0964913147503E+00  3.8199175602201E-01
    54  5.3000000000000E-01  1.1042905638503E+00  3.5297684641191E-01
    55  5.4000000000000E-01  1.1114782827743E+00  3.2304264175957E-01
    56  5.5000000000000E-01  1.1180553834184E+00  2.9225817822844E-01
    57  5.6000000000000E-01  1.1240232947095E+00  2.6069462032523E-01
    58  5.7000000000000E-01  1.1293839575348E+00  2.2842509613845E-01
    59  5.8000000000000E-01  1.1341398191151E+00  1.9552452731674E-01
    60  5.9000000000000E-01  1.1382938268327E+00  1.6206945419111E-01
    61  6.0000000000000E-01  1.1418494215235E+00  1.2813785646200E-01
    62  6.1000000000000E-01  1.1448105302425E+00  9.3808969888827E-02
    63  6.2000000000000E-01  1.1471815585163E+00  5.9163099433947E-02
    64  6.3000000000000E-01  1.1489673820934E+00  2.4281429327424E-02
    65  6.4000000000000E-01  1.1501733382047E+00 -1.0754169468498E-02
    66  6.5000000000000E-01  1.1508052163483E+00 -4.5861333905172E-02
    67  6.6000000000000E-01  1.1508692486114E+00 -8.0957405103182E-02
    68  6.7000000000000E-01  1.1503720995445E+00 -1.1595962570929E-01
    69  6.8000000000000E-01  1.1493208556026E+00 -1.5078533783855E-01
    70  6.9000000000000E-01  1.1477230141685E+00 -1.8535218108050E-01
    71  7.0000000000000E-01  1.1455864721744E+00 -2.1957829004389E-01
    72  7.1000000000000E-01  1.1429195143383E+00 -2.5338249091216E-01
    73  7.2000000000000E-01  1.1397308010325E+00 -2.8668449648150E-01
    74  7.3000000000000E-01  1.1360293558003E+00 -3.1940509915394E-01
    75  7.4000000000000E-01  1.1318245525402E+00 -3.5146636136088E-01
    76  7.5000000000000E-01  1.1271261023745E+00 -3.8279180289651E-01
    77  7.6000000000000E-01  1.1219440402217E+00 -4.1330658464762E-01
    78  7.7000000000000E-01  1.1162887110913E+00 -4.4293768821283E-01
    79  7.8000000000000E-01  1.1101707561197E+00 -4.7161409091534E-01
    80  7.9000000000000E-01  1.1036010983676E+00 -4.9926693572341E-01
    81  8.0000000000000E-01  1.0965909283981E+00 -5.2582969560657E-01
    82  8.1000000000000E-01  1.0891516896550E+00 -5.5123833186993E-01
    83  8.2000000000000E-01  1.0812950636631E+00 -5.7543144602517E-01
    84  8.3000000000000E-01  1.0730329550692E+00 -5.9835042477491E-01
    85  8.4000000000000E-01  1.0643774765450E+00 -6.1993957770632E-01
    86  8.5000000000000E-01  1.0553409335727E+00 -6.4014626731082E-01
    87  8.6000000000000E-01  1.0459358091343E+00 -6.5892103096887E-01
    88  8.7000000000000E-01  1.0361747483248E+00 -6.7621769456275E-01
    89  8.8000000000000E-01  1.0260705429100E+00 -6.9199347740457E-01
    90  8.9000000000000E-01  1.0156361158515E+00 -7.0620908819322E-01
    91  9.0000000000000E-01  1.0048845058175E+00 -7.1882881174083E-01
    92  9.1000000000000E-01  9.9382885170106E-01 -7.2982058623749E-01
    93  9.2000000000000E-01  9.8248237716811E-01 -7.3915607085180E-01
    94  9.3000000000000E-01  9.7085837525283E-01 -7.4681070349469E-01
    95  9.4000000000000E-01  9.5897019302344E-01 -7.5276374860421E-01
    96  9.5000000000000E-01  9.4683121633741E-01 -7.5699833484010E-01
    97  9.6000000000000E-01  9.3445485470653E-01 -7.5950148260812E-01
    98  9.7000000000000E-01  9.2185452629162E-01 -7.6026412136593E-01
    99  9.8000000000000E-01  9.0904364304652E-01 -7.5928109669423E-01
   100  9.9000000000000E-01  8.9603559603051E-01 -7.5655116714871E-01
   101  1.0000000000000E+00  8.8284374090831E-01 -7.5207699094039E-01
   102  1.0100000000000E+00  8.6948138365601E-01 -7.4586510252350E-01
   103  1.0200000000000E+00  8.5596176649132E-01 -7.3792587920174E-01
   104  1.0300000000000E+00  8.4229805404585E-01 -7.2827349789438E-01
   105  1.0400000000000E+00  8.2850331979673E-01 -7.1692588223467E-01
   106  1.0500000000000E+00  8.1459053277446E-01 -7.0390464020210E-01
   107  1.0600000000000E+00  8.0057254456337E-01 -6.8923499251998E-01
   108  1.0700000000000E+00  7.8646207661050E-01 -6.7294569207697E-01
   109  1.0800000000000E+00  7.7227170785812E-01 -6.5506893465922E-01
   110  1.0900000000000E+00  7.5801386271468E-01 -6.3564026130506E-01
   111  1.1000000000000E+00  7.4370079937821E-01 -6.1469845261957E-01
   112  1.1100000000000E+00  7.2934459852565E-01 -5.9228541540949E-01
   113  1.1200000000000E+00  7.1495715238096E-01 -5.6844606202121E-01
   114  1.1300000000000E+00  7.0055015417401E-01 -5.4322818278516E-01
   115  1.1400000000000E+00  6.8613508800186E-01 -5.1668231198926E-01
   116  1.1500000000000E+00  6.7172321910308E-01 -4.8886158782092E-01
   117  1.1600000000000E+00  6.5732558455509E-01 -4.5982160673373E-01
   118  1.1700000000000E+00  6.4295298440376E-01 -4.2962027270837E-01
   119  1.1800000000000E+00  6.2861597323393E-01 -3.9831764188959E-01
   120  1.1900000000000E+00  6.1432485218825E-01 -3.6597576309199E-01
   121  1.2000000000000E+00  6.0008966144159E-01 -3.3265851467531E-01
   122  1.2100000000000E+00  5.8592017313694E-01 -2.9843143829708E-01
   123  1.2200000000000E+00  5.7182588478817E-01 -2.6336157005487E-01
   124  1.2300000000000E+00  5.5781601315422E-01 -2.2751726953391E-01
   125  1.2400000000000E+00  5.4389948858824E-01 -1.9096804727589E-01
   126  1.2500000000000E+00  5.3008494986474E-01 -1.5378439118498E-01
   127  1.2600000000000E+00  5.1638073948657E-01 -1.1603759238337E-01
   128  1.2700000000000E+00  5.0279489947307E-01 -7.7799571024719E-02
   129  1.2800000000000E+00  4.8933516762962E-01 -3.9142702567260E-02
   130  1.2900000000000E+00  4.7600897429827E-01 -1.3964500010065E-04
   131  1.3000000000000E+00  4.6282343958799E-01  3.9136832493438E-02
   132  1.3100000000000E+00  4.4978537108257E-01  7.8614018963106E-02
   133  1.3200000000000E+00  4.3690126202319E-01  1.1821942875040E-01
   134  1.3300000000000E+00  4.2417728996188E-01  1.5788096573401E-01
   135  1.3400000000000E+00  4.1161931588149E-01  1.9752708433329E-01
   136  1.3500000000000E+00  3.9923288377675E-01  2.3708694685838E-01
   137  1.3600000000000E+00  3.8702322069048E-01  2.7649057681433E-01
   138  1.3700000000000E+00  3.7499523719805E-01  3.1566900778609E-01
   139  1.3800000000000E+00  3.6315352833265E-01  3.5455442755223E-01
   140  1.3900000000000E+00  3.5150237494310E-01  3.9308031709685E-01
   141  1.4000000000000E+00  3.4004574547532E-01  4.3118158421196E-01
   142  1.4100000000000E+00  3.2878729816777E-01  4.6879469140560E-01
   143  1.4200000000000E+00  3.1773038365083E-01  5.0585777785551E-01
   144  1.4300000000000E+00  3.0687804793909E-01  5.4231077517193E-01
   145  1.4400000000000E+00  2.9623303580526E-01  5.7809551675868E-01
   146  1.4500000000000E+00  2.8579779452369E-01  6.1315584058647E-01
   147  1.4600000000000E+00  2.7557447797096E-01  6.4743768521783E-01
   148  1.4700000000000E+00  2.6556495107056E-01  6.8088917894860E-01
   149  1.4800000000000E+00  2.5577079456820E-01  7.1346072195620E-01
   150  1.4900000000000E+00  2.4619331012389E-01  7.4510506137011E-01
   151  1.5000000000000E+00  2.3683352570630E-01  7.7577735920516E-01
   152  1.5100000000000E+00  2.2769220127503E-01  8.0543525312253E-01
   153  1.5200000000000E+00  2.1876983473552E-01  8.3403891000799E-01
   154  1.5300000000000E+00  2.1006666815147E-01  8.6155107237987E-01
   155  1.5400000000000E+00  2.0158269419915E-01  8.8793709766285E-01
   156  1.5500000000000E+00  1.9331766284785E-01  9.1316499038535E-01
   157  1.5600000000000E+00  1.8527108825053E-01  9.3720542738016E-01
   158  1.5700000000000E+00  1.7744225582854E-01  9.6003177608807E-01
   159  1.5800000000000E+00  1.6983022953422E-01  9.8162010608391E-01
   160  1.5900000000000E+00  1.6243385927506E-01  1.0019491939632E+00
   161  1.6000000000000E+00  1.5525178848316E-01  1.0210005217447E+00
   162  1.6100000000000E+00  1.4828246181363E-01  1.0387582689607E+00
   163  1.6200000000000E+00  1.4152413295561E-01  1.0552092986220E+00
   164  1.6300000000000E+00  1.3497487253984E-01  1.0703431372579E+00
   165  1.6400000000000E+00  1.2863257612648E-01  1.0841519492461E+00
   166  1.6500000000000E+00  1.2249497225742E-01  1.0966305056558E+00
   167  1.6600000000000E+00  1.1655963055720E-01  1.1077761478401E+00
   168  1.6700000000000E+00  1.1082396986698E-01  1.1175887460218E+00
   169  1.6800000000000E+00  1.0528526639627E-01  1.1260706531240E+00
   170  1.6900000000000E+00  9.9940661877401E-02  1.1332266541034E+00
   171  1.7000000000000E+00  9.4787171707917E-02  1.1390639110489E+00
   172  1.7100000000000E+00  8.9821693066583E-02  1.1435919043138E+00
   173  1.7200000000000E+00  8.5041012988905E-02  1.1468223699485E+00
   174  1.7300000000000E+00  8.0441816388549E-02  1.1487692337073E+00
   175  1.7400000000000E+00  7.6020694011415E-02  1.1494485418982E+00
   176  1.7500000000000E+00  7.1774150309574E-02  1.1488783893461E+00
   177  1.7600000000000E+00  6.7698611222743E-02  1.1470788447391E+00
   178  1.7700000000000E+00  6.3790431855443E-02  1.1440718736207E+00
   179  1.7800000000000E+00  6.0045904038499E-02  1.1398812592915E+00
   180  1.7900000000000E+00  5.6461263764041E-02  1.1345325218750E+00
   181  1.8000000000000E+00  5.3032698483733E-02  1.1280528357996E+00
   182  1.8100000000000E+00  4.9756354260466E-02  1.1204709459398E+00
   183  1.8200000000000E+00  4.6628342764349E-02  1.1118170826554E+00
   184  1.8300000000000E+00  4.3644748104369E-02  1.1021228759560E+00
   185  1.8400000000000E+00  4.0801633487711E-02  1.0914212690140E+00
   186  1.8500000000000E+00  3.8095047699280E-02  1.0797464312362E+00
   187  1.8600000000000E+00  3.5521031394596E-02  1.0671336710980E+00
   188  1.8700000000000E+00  3.3075623199796E-02  1.0536193489333E+00
   189  1.8800000000000E+00  3.0754865613107E-02  1.0392407898623E+00
   190  1.8900000000000E+00  2.8554810702743E-02  1.0240361970324E+00
   191  1.9000000000000E+00  2.6471525596767E-02  1.0080445653322E+00
   192  1.9100000000000E+00  2.4501097761081E-02  9.9130559573379E-01
   193  1.9200000000000E+00  2.2639640062273E-02  9.7385961040318E-01
   194  1.9300000000000E+00  2.0883295612649E-02  9.5574746871255E-01
   195  1.9400000000000E+00  1.9228242395366E-02  9.3701048427432E-01
   196  1.9500000000000E+00  1.7670697668123E-02  9.1769034310971E-01
   197  1.9600000000000E+00  1.6206922144455E-02  8.9782902305285E-01
   198  1.9700000000000E+00  1.4833223952213E-02  8.7746871448318E-01
   199  1.9800000000000E+00  1.3545962369326E-02  8.5665174246876E-01
   200  1.9900000000000E+00  1.2341551337517E-02  8.3542049039499E-01
   201  2.0000000000000E+00  1.1216462755063E-02  8.1381732514424E-01
   202  2.0100000000000E+00  1.0167229550275E-02  7.9188452388442E-01
   203  2.0200000000000E+00  9.1904485377608E-03  7.6966420251643E-01
   204  2.0300000000000E+00  8.2827830600404E-03  7.4719824582379E-01
   205  2.0400000000000E+00  7.4409654174912E-03  7.2452823936096E-01
   206  2.0500000000000E+00  6.6617990900186E-03  7.0169540311096E-01
   207  2.0600000000000E+00  5.9421607542443E-03  6.7874052693726E-01
   208  2.0700000000000E+00  5.2790021003573E-03  6.5570390785022E-01
   209  2.0800000000000E+00  4.6693514531511E-03  6.3262528910353E-01
   210  2.0900000000000E+00  4.1103152020705E-03  6.0954380113241E-01
   211  2.1000000000000E+00  3.5990790454019E-03  5.8649790434211E-01
   212  2.1100000000000E+00  3.1329090540312E-03  5.6352533375206E-01
   213  2.1200000000000E+00  2.7091525604281E-03  5.4066304549888E-01
   214  2.1300000000000E+00  2.3252388787725E-03  5.1794716519952E-01
   215  2.1400000000000E+00  1.9786798623288E-03  4.9541293817429E-01
   216  2.1500000000000E+00  1.6670703043751E-03  4.7309468152871E-01
   217  2.1600000000000E+00  1.3880881891387E-03  4.5102573809228E-01
   218  2.1700000000000E+00  1.1394947993405E-03  4.2923843221232E-01
   219  2.1800000000000E+00  9.1913468706094E-04  4.0776402740082E-01
   220  2.1900000000000E+00  7.2493551473135E-04  3.8663268583294E-01
   221  2.2000000000000E+00  5.5490777312772E-04  3.6587342969651E-01
   222  2.2100000000000E+00  4.0714438327482E-04  3.4551410439233E-01
   223  2.2200000000000E+00  2.7982018921462E-04  3.2558134358686E-01
   224  2.2300000000000E+00  1.7119134858129E-04  3.0610053611963E-01
   225  2.2400000000000E+00  7.9594627903319E-05  2.8709579476946E-01
   226  2.2500000000000E+00  3.4466095242643E-06  2.6858992688477E-01
   227  2.2600000000000E+00 -5.8757183027415E-05  2.5060440688488E-01
   228  2.2700000000000E+00 -1.0844323447522E-04  2.3315935064079E-01
   229  2.2800000000000E+00 -1.4696105540113E-04  2.1627349174550E-01
   230  2.2900000000000E+00 -1.7558426145419E-04  1.9996415968497E-01
   231  2.3000000000000E+00 -1.9551170778591E-04  1.8424725992270E-01
   232  2.3100000000000E+00 -2.0786867244912E-04  1.6913725591172E-01
   233  2.3200000000000E+00 -2.1370808269168E-04  1.5464715304913E-01
   234  2.3300000000000E+00 -2.1401177819372E-04  1.4078848458893E-01
   235  2.3400000000000E+00 -2.0969180557559E-04  1.2757129952999E-01
   236  2.3500000000000E+00 -2.0159173866589E-04  1.1500415249610E-01
   237  2.3600000000000E+00 -1.9048801923524E-04  1.0309409562552E-01
   238  2.3700000000000E+00 -1.7709131312791E-04  9.1846672487356E-02
   239  2.3800000000000E+00 -1.6204772397264E-04  8.1265915051775E-02
   240  2.3900000000000E+00 -1.4594148238429E-04  7.1354332571002E-02
   241  2.4000000000000E+00 -1.2929217292662E-04  6.2112942020774E-02
   242  2.4100000000000E+00 -1.1256180523688E-04  5.3541226537741E-02
   243  2.4200000000000E+00 -9.6163108719765E-05  4.5637088017321E-02
   244  2.4300000000000E+00 -8.0540176500716E-05  3.8396392410259E-02
   245  2.4400000000000E+00 -6.6055573056194E-05  3.1813735920780E-02
   246  2.4500000000000E+00 -5.2877313871015E-05  2.5883177435379E-02
   247  2.4600000000000E+00 -4.1132663812389E-05  2.0597155615475E-02
   248  2.4700000000000E+00 -3.0910387281567E-05  1.5946506469050E-02
   249  2.4800000000000E+00 -2.2252088906978E-05  1.1920570378314E-02
   250  2.4900000000000E+00 -1.5156187294620E-05  8.5071976272733E-03
   251  2.5000000000000E+00 -9.5784352501203E-06  5.6927840167127E-03
   252  2.5100000000000E+00 -5.4337181221993E-06  3.4635751406189E-03
   253  2.5200000000000E+00 -2.5872793767570E-06  1.7942567236501E-03
   254  2.5300000000000E+00 -8.8669070367645E-07  6.8354233857751E-04
   255  2.5400000000000E+00 -1.4606018215700E-07  1.3141091617984E-04
   256  2.5500000000000E+00  2.6778165356217E-08 -2.4592919538321E-05
   257  2.5600000000000E+00  6.3767586876931E-09 -6.6023188968253E-06
   258  2.57 -0.  0.
   259  2.58  0. -0.
   260  2.59  0. -0.
   261  2.60 -0. -0.
   262  2.61  0.  0.
   263  2.62  0.  0.
   264  2.63  0.  0.
   265  2.64  0.  0.
   266  2.65  0.  0.
   267  2.66  0.  0.
   268  2.67  0.  0.
   269  2.68  0.  0.
   270  2.69  0.  0.
   271  2.70  0.  0.
   272  2.71  0.  0.
   273  2.72  0.  0.
   274  2.73  0.  0.
   275  2.74  0.  0.
   276  2.75  0.  0.
   277  2.76  0.  0.
   278  2.77  0.  0.
   279  2.78  0.  0.
   280  2.79  0.  0.
   281  2.80  0.  0.
   282  2.81  0.  0.
   283  2.82  0.  0.
   284  2.83  0.  0.
   285  2.84  0.  0.
   286  2.85  0.  0.
   287  2.86  0.  0.
   288  2.87  0.  0.
   289  2.88  0.  0.
   290  2.89  0.  0.
   291  2.90  0.  0.
   292  2.91  0.  0.
   293  2.92  0.  0.
   294  2.93  0.  0.
   295  2.94  0.  0.
   296  2.95  0.  0.
   297  2.96  0.  0.
   298  2.97  0.  0.
   299  2.98  0.  0.
   300  2.99  0.  0.
   301  3.00  0.  0.
   302  3.01  0.  0.
   303  3.02  0.  0.
   304  3.03  0.  0.
   305  3.04  0.  0.
   306  3.05  0.  0.
   307  3.06  0.  0.
   308  3.07  0.  0.
   309  3.08  0.  0.
   310  3.09  0.  0.
   311  3.10  0.  0.
   312  3.11  0.  0.
   313  3.12  0.  0.
   314  3.13  0.  0.
   315  3.14  0.  0.
   316  3.15  0.  0.
   317  3.16  0.  0.
   318  3.17  0.  0.
   319  3.18  0.  0.
   320  3.19  0.  0.
   321  3.20  0.  0.
   322  3.21  0.  0.
   323  3.22  0.  0.
   324  3.23  0.  0.
   325  3.24  0.  0.
   326  3.25  0.  0.
   327  3.26  0.  0.
   328  3.27  0.  0.
   329  3.28  0.  0.
   330  3.29  0.  0.
   331  3.30  0.  0.
   332  3.31  0.  0.
   333  3.32  0.  0.
   334  3.33  0.  0.
   335  3.34  0.  0.
   336  3.35  0.  0.
   337  3.36  0.  0.
   338  3.37  0.  0.
   339  3.38  0.  0.
   340  3.39  0.  0.
   341  3.40  0.  0.
   342  3.41  0.  0.
   343  3.42  0.  0.
   344  3.43  0.  0.
   345  3.44  0.  0.
   346  3.45  0.  0.
   347  3.46  0.  0.
   348  3.47  0.  0.
   349  3.48  0.  0.
   350  3.49  0.  0.
   351  3.50  0.  0.
   352  3.51  0.  0.
   353  3.52  0.  0.
   354  3.53  0.  0.
   355  3.54  0.  0.
   356  3.55  0.  0.
   357  3.56  0.  0.
   358  3.57  0.  0.
   359  3.58  0.  0.
   360  3.59  0.  0.
   361  3.60  0.  0.
   362  3.61  0.  0.
   363  3.62  0.  0.
   364  3.63  0.  0.
   365  3.64  0.  0.
   366  3.65  0.  0.
   367  3.66  0.  0.
   368  3.67  0.  0.
   369  3.68  0.  0.
   370  3.69  0.  0.
   371  3.70  0.  0.
   372  3.71  0.  0.
   373  3.72  0.  0.
   374  3.73  0.  0.
   375  3.74  0.  0.
   376  3.75  0.  0.
   377  3.76  0.  0.
   378  3.77  0.  0.
   379  3.78  0.  0.
   380  3.79  0.  0.
   381  3.80  0.  0.
   382  3.81  0.  0.
   383  3.82  0.  0.
   384  3.83  0.  0.
   385  3.84  0.  0.
   386  3.85  0.  0.
   387  3.86  0.  0.
   388  3.87  0.  0.
   389  3.88  0.  0.
   390  3.89  0.  0.
   391  3.90  0.  0.
   392  3.91  0.  0.
   393  3.92  0.  0.
   394  3.93  0.  0.
   395  3.94  0.  0.
   396  3.95  0.  0.
   397  3.96  0.  0.
   398  3.97  0.  0.
   399  3.98  0.  0.
   400  3.99  0.  0.
   401  4.00  0.  0.
   402  4.01  0.  0.
   403  4.02  0.  0.
   404  4.03  0.  0.
   405  4.04  0.  0.
   406  4.05  0.  0.
   407  4.06  0.  0.
   408  4.07  0.  0.
   409  4.08  0.  0.
   410  4.09  0.  0.
   411  4.10  0.  0.
   412  4.11  0.  0.
   413  4.12  0.  0.
   414  4.13  0.  0.
   415  4.14  0.  0.
   416  4.15  0.  0.
   417  4.16  0.  0.
   418  4.17  0.  0.
   419  4.18  0.  0.
   420  4.19  0.  0.
   421  4.20  0.  0.
   422  4.21  0.  0.
   423  4.22  0.  0.
   424  4.23  0.  0.
   425  4.24  0.  0.
   426  4.25  0.  0.
   427  4.26  0.  0.
   428  4.27  0.  0.
   429  4.28  0.  0.
   430  4.29  0.  0.
   431  4.30  0.  0.
   432  4.31  0.  0.
   433  4.32  0.  0.
   434  4.33  0.  0.
   435  4.34  0.  0.
   436  4.35  0.  0.
   437  4.36  0.  0.
   438  4.37  0.  0.
   439  4.38  0.  0.
   440  4.39  0.  0.
   441  4.40  0.  0.
   442  4.41  0.  0.
   443  4.42  0.  0.
   444  4.43  0.  0.
   445  4.44  0.  0.
   446  4.45  0.  0.
   447  4.46  0.  0.
   448  4.47  0.  0.
   449  4.48  0.  0.
   450  4.49  0.  0.
   451  4.50  0.  0.
   452  4.51  0.  0.
   453  4.52  0.  0.
   454  4.53  0.  0.
   455  4.54  0.  0.
   456  4.55  0.  0.
   457  4.56  0.  0.
   458  4.57  0.  0.
   459  4.58  0.  0.
   460  4.59  0.  0.
   461  4.60  0.  0.
   462  4.61  0.  0.
   463  4.62  0.  0.
   464  4.63  0.  0.
   465  4.64  0.  0.
   466  4.65  0.  0.
   467  4.66  0.  0.
   468  4.67  0.  0.
   469  4.68  0.  0.
   470  4.69  0.  0.
   471  4.70  0.  0.
   472  4.71  0.  0.
   473  4.72  0.  0.
   474  4.73  0.  0.
   475  4.74  0.  0.
   476  4.75  0.  0.
   477  4.76  0.  0.
   478  4.77  0.  0.
   479  4.78  0.  0.
   480  4.79  0.  0.
   481  4.80  0.  0.
   482  4.81  0.  0.
   483  4.82  0.  0.
   484  4.83  0.  0.
   485  4.84  0.  0.
   486  4.85  0.  0.
   487  4.86  0.  0.
   488  4.87  0.  0.
   489  4.88  0.  0.
   490  4.89  0.  0.
   491  4.90  0.  0.
   492  4.91  0.  0.
   493  4.92  0.  0.
   494  4.93  0.  0.
   495  4.94  0.  0.
   496  4.95  0.  0.
   497  4.96  0.  0.
   498  4.97  0.  0.
   499  4.98  0.  0.
   500  4.99  0.  0.
   1                        -2.7309136212462E+00 -5.3936098171697E-01
     1  0.0000000000000E+00 -2.1359997104398E-13  2.2519288517264E-11
     2  1.0000000000000E-02  4.2888189457994E-04 -3.9204539671248E-04
     3  2.0000000000000E-02  1.7149302531804E-03 -1.5674050000360E-03
     4  3.0000000000000E-02  3.8563538437131E-03 -3.5237491353346E-03
     5  4.0000000000000E-02  6.8501697573325E-03 -6.2571953096754E-03
     6  5.0000000000000E-02  1.0692207126060E-02 -9.7623087012272E-03
     7  6.0000000000000E-02  1.5377112328763E-02 -1.4032102928610E-02
     8  7.0000000000000E-02  2.0898355686706E-02 -1.9058041183139E-02
     9  8.0000000000000E-02  2.7248239650081E-02 -2.4830037829431E-02
    10  9.0000000000000E-02  3.4417908477080E-02 -3.1336460600946E-02
    11  1.0000000000000E-01  4.2397359407014E-02 -3.8564133537072E-02
    12  1.1000000000000E-01  5.1175455328889E-02 -4.6498340826694E-02
    13  1.2000000000000E-01  6.0739938946522E-02 -5.5122831740129E-02
    14  1.3000000000000E-01  7.1077448440806E-02 -6.4419826846043E-02
    15  1.4000000000000E-01  8.2173534629116E-02 -7.4370025722959E-02
    16  1.5000000000000E-01  9.4012679620929E-02 -8.4952616385580E-02
    17  1.6000000000000E-01  1.0657831696773E-01 -9.6145286654543E-02
    18  1.7000000000000E-01  1.1985285330395E-01 -1.0792423770414E-01
    19  1.8000000000000E-01  1.3381769147414E-01 -1.2026420002598E-01
    20  1.9000000000000E-01  1.4845325513999E-01 -1.3313845204740E-01
    21  2.0000000000000E-01  1.6373901485855E-01 -1.4651884164159E-01
    22  2.1000000000000E-01  1.7965351562110E-01 -1.6037581076191E-01
    23  2.2000000000000E-01  1.9617440583949E-01 -1.7467842342581E-01
    24  2.3000000000000E-01  2.1327846776412E-01 -1.8939439726383E-01
    25  2.4000000000000E-01  2.3094164931481E-01 -2.0449013883687E-01
    26  2.5000000000000E-01  2.4913909730290E-01 -2.1993078290983E-01
    27  2.6000000000000E-01  2.6784519201931E-01 -2.3568023585236E-01
    28  2.7000000000000E-01  2.8703358315995E-01 -2.5170122331772E-01
    29  2.8000000000000E-01  3.0667722705634E-01 -2.6795534232856E-01
    30  2.9000000000000E-01  3.2674842517508E-01 -2.8440311787447E-01
    31  3.0000000000000E-01  3.4721886384638E-01 -3.0100406410009E-01
    32  3.1000000000000E-01  3.6805965517720E-01 -3.1771675013482E-01
    33  3.2000000000000E-01  3.8924137910096E-01 -3.3449887058573E-01
    34  3.3000000000000E-01  4.1073412651104E-01 -3.5130732068493E-01
    35  3.4000000000000E-01  4.3250754342137E-01 -3.6809827605060E-01
    36  3.5000000000000E-01  4.5453087609293E-01 -3.8482727698860E-01
    37  3.6000000000000E-01  4.7677301706073E-01 -4.0144931722820E-01
    38  3.7000000000000E-01  4.9920255199169E-01 -4.1791893695199E-01
    39  3.8000000000000E-01  5.2178780729950E-01 -4.3419031994637E-01
    40  3.9000000000000E-01  5.4449689843857E-01 -4.5021739466553E-01
    41  4.0000000000000E-01  5.6729777879529E-01 -4.6595393896890E-01
    42  4.1000000000000E-01  5.9015828909090E-01 -4.8135368825948E-01
    43  4.2000000000000E-01  6.1304620720663E-01 -4.9637044671929E-01
    44  4.3000000000000E-01  6.3592929833864E-01 -5.1095820130787E-01
    45  4.4000000000000E-01  6.5877536538679E-01 -5.2507123816130E-01
    46  4.5000000000000E-01  6.8155229947863E-01 -5.3866426100183E-01
    47  4.6000000000000E-01  7.0422813052725E-01 -5.5169251114355E-01
    48  4.7000000000000E-01  7.2677107771949E-01 -5.6411188865656E-01
    49  4.8000000000000E-01  7.4914959982891E-01 -5.7587907423142E-01
    50  4.9000000000000E-01  7.7133244524645E-01 -5.8695165126807E-01
    51  5.0000000000000E-01  7.9328870162047E-01 -5.9728822769784E-01
    52  5.1000000000000E-01  8.1498784499695E-01 -6.0684855703505E-01
    53  5.2000000000000E-01  8.3639978835043E-01 -6.1559365814544E-01
    54  5.3000000000000E-01  8.5749492939598E-01 -6.2348593321237E-01
    55  5.4000000000000E-01  8.7824419757319E-01 -6.3048928337876E-01
    56  5.5000000000000E-01  8.9861910009394E-01 -6.3656922154326E-01
    57  5.6000000000000E-01  9.1859176694690E-01 -6.4169298179251E-01
    58  5.7000000000000E-01  9.3813499475364E-01 -6.4582962495867E-01
    59  5.8000000000000E-01  9.5722228937336E-01 -6.4895013980134E-01
    60  5.9000000000000E-01  9.7582790715569E-01 -6.5102753932709E-01
    61  6.0000000000000E-01  9.9392689474438E-01 -6.5203695177620E-01
    62  6.1000000000000E-01  1.0114951273379E+00 -6.5195570582677E-01
    63  6.2000000000000E-01  1.0285093453167E+00 -6.5076340958900E-01
    64  6.3000000000000E-01  1.0449471891519E+00 -6.4844202298886E-01
    65  6.4000000000000E-01  1.0607872325138E+00 -6.4497592316896E-01
    66  6.5000000000000E-01  1.0760090135039E+00 -6.4035196256607E-01
    67  6.6000000000000E-01  1.0905930639402E+00 -6.3455951935838E-01
    68  6.7000000000000E-01  1.1045209366299E+00 -6.2759054001192E-01
    69  6.8000000000000E-01  1.1177752305710E+00 -6.1943957369342E-01
    70  6.9000000000000E-01  1.1303396140281E+00 -6.1010379835680E-01
    71  7.0000000000000E-01  1.1421988454380E+00 -5.9958303835173E-01
    72  7.1000000000000E-01  1.1533387921022E+00 -5.8787977344515E-01
    73  7.2000000000000E-01  1.1637464466346E+00 -5.7499913919018E-01
    74  7.3000000000000E-01  1.1734099411380E+00 -5.6094891862064E-01
    75  7.4000000000000E-01  1.1823185590875E+00 -5.4573952529425E-01
    76  7.5000000000000E-01  1.1904627449108E+00 -5.2938397775147E-01
    77  7.6000000000000E-01  1.1978341112587E+00 -5.1189786550160E-01
    78  7.7000000000000E-01  1.2044254439658E+00 -4.9329930669115E-01
    79  7.8000000000000E-01  1.2102307047123E+00 -4.7360889765235E-01
    80  7.9000000000000E-01  1.2152450314002E+00 -4.5284965457115E-01
    81  8.0000000000000E-01  1.2194647362667E+00 -4.3104694755463E-01
    82  8.1000000000000E-01  1.2228873017625E+00 -4.0822842741575E-01
    83  8.2000000000000E-01  1.2255113742321E+00 -3.8442394553027E-01
    84  8.3000000000000E-01  1.2273367554341E+00 -3.5966546715470E-01
    85  8.4000000000000E-01  1.2283643919523E+00 -3.3398697862619E-01
    86  8.5000000000000E-01  1.2285963625469E+00 -3.0742438889425E-01
    87  8.6000000000000E-01  1.2280358635073E+00 -2.8001542586047E-01
    88  8.7000000000000E-01  1.2266871920677E+00 -2.5179952802570E-01
    89  8.8000000000000E-01  1.2245557279538E+00 -2.2281773196411E-01
    90  8.9000000000000E-01  1.2216479131344E+00 -1.9311255616007E-01
    91  9.0000000000000E-01  1.2179712298523E+00 -1.6272788175708E-01