Pt    ONCVPSP-4.0.1  r_core=   2.29804   2.19066   2.35369   2.33966
     78.0000     18.0000      230118    zatom,zion,pspd
     8       2   3     4   500     0    pspcod,pspxc,lmax,lloc,mmax,r2well
  4.99000000  5.00000000  0.00000000    rchrg fchrg qchrg
     2     2     2     2     0    nproj
     1     1           extension_switch
   0                         1.9581239594804E+00 -7.2217169581367E-01
     1  0.0000000000000E+00  8.5251306014555E-11 -2.1505663916344E-10
     2  1.0000000000000E-02  3.3794340542264E-02  6.3709302941239E-02
     3  2.0000000000000E-02  6.7586444173903E-02  1.2719425390179E-01
     4  3.0000000000000E-02  1.0137377647545E-01  1.9023160493550E-01
     5  4.0000000000000E-02  1.3515322341560E-01  2.5260028025003E-01
     6  5.0000000000000E-02  1.6892082806984E-01  3.1408239959733E-01
     7  6.0000000000000E-02  2.0267154676658E-01  3.7446425447878E-01
     8  7.0000000000000E-02  2.3639902513209E-01  4.3353723502522E-01
     9  8.0000000000000E-02  2.7009539442075E-01  4.9109870562719E-01
    10  9.0000000000000E-02  3.0375108843202E-01  5.4695282761248E-01
    11  1.0000000000000E-01  3.3735468123196E-01  6.0091132749555E-01
    12  1.1000000000000E-01  3.7089274581416E-01  6.5279420955440E-01
    13  1.2000000000000E-01  4.0434973375348E-01  7.0243041172507E-01
    14  1.3000000000000E-01  4.3770787582576E-01  7.4965840403915E-01
    15  1.4000000000000E-01  4.7094710348835E-01  7.9432672906604E-01
    16  1.5000000000000E-01  5.0404499103965E-01  8.3629448405612E-01
    17  1.6000000000000E-01  5.3697671820125E-01  8.7543174471348E-01
    18  1.7000000000000E-01  5.6971505279407E-01  9.1161993075575E-01
    19  1.8000000000000E-01  6.0223035310986E-01  9.4475211364252E-01
    20  1.9000000000000E-01  6.3449058951195E-01  9.7473326707216E-01
    21  2.0000000000000E-01  6.6646138473476E-01  1.0014804610579E+00
    22  2.1000000000000E-01  6.9810607228924E-01  1.0249230005972E+00
    23  2.2000000000000E-01  7.2938577232313E-01  1.0450025101433E+00
    24  2.3000000000000E-01  7.6025948422870E-01  1.0616729652709E+00
    25  2.4000000000000E-01  7.9068419523839E-01  1.0749006731043E+00
    26  2.5000000000000E-01  8.2061500419962E-01  1.0846642032360E+00
    27  2.6000000000000E-01  8.5000525967406E-01  1.0909542710162E+00
    28  2.7000000000000E-01  8.7880671146492E-01  1.0937735752321E+00
    29  2.8000000000000E-01  9.0696967463686E-01  1.0931365923191E+00
    30  2.9000000000000E-01  9.3444320505855E-01  1.0890693293601E+00
    31  3.0000000000000E-01  9.6117528546680E-01  1.0816090382255E+00
    32  3.1000000000000E-01  9.8711302102391E-01  1.0708038932917E+00
    33  3.2000000000000E-01  1.0122028433166E+00  1.0567126352470E+00
    34  3.3000000000000E-01  1.0363907217256E+00  1.0394041835479E+00
    35  3.4000000000000E-01  1.0596223810790E+00  1.0189572201352E+00
    36  3.5000000000000E-01  1.0818435244919E+00  9.9545974704381E-01
    37  3.6000000000000E-01  1.1030000602867E+00  9.6900862055964E-01
    38  3.7000000000000E-01  1.1230383318843E+00  9.3970906457584E-01
    39  3.8000000000000E-01  1.1419053495592E+00  9.0767416579247E-01
    40  3.9000000000000E-01  1.1595490229524E+00  8.7302435337889E-01
    41  4.0000000000000E-01  1.1759183932478E+00  8.3588686568449E-01
    42  4.1000000000000E-01  1.1909638639277E+00  7.9639520653664E-01
    43  4.2000000000000E-01  1.2046374290399E+00  7.5468859360805E-01
    44  4.3000000000000E-01  1.2168928979275E+00  7.1091140126920E-01
    45  4.4000000000000E-01  1.2276861153993E+00  6.6521260026494E-01
    46  4.5000000000000E-01  1.2369751763399E+00  6.1774519647062E-01
    47  4.6000000000000E-01  1.2447206337946E+00  5.6866567088990E-01
    48  4.7000000000000E-01  1.2508856995961E+00  5.1813342295823E-01
    49  4.8000000000000E-01  1.2554364366340E+00  4.6631021910983E-01
    50  4.9000000000000E-01  1.2583419419149E+00  4.1335964845630E-01
    51  5.0000000000000E-01  1.2595745195964E+00  3.5944658730982E-01
    52  5.1000000000000E-01  1.2591098432307E+00  3.0473667416535E-01
    53  5.2000000000000E-01  1.2569271064976E+00  2.4939579663577E-01
    54  5.3000000000000E-01  1.2530091617610E+00  1.9358959171043E-01
    55  5.4000000000000E-01  1.2473426458325E+00  1.3748296058397E-01
    56  5.5000000000000E-01  1.2399180923860E+00  8.1239599178213E-02
    57  5.6000000000000E-01  1.2307300305197E+00  2.5021545355989E-02
    58  5.7000000000000E-01  1.2197770690235E+00 -3.1011256296156E-02
    59  5.8000000000000E-01  1.2070619659700E+00 -8.6701371360195E-02
    60  5.9000000000000E-01  1.1925916833075E+00 -1.4189427351484E-01
    61  6.0000000000000E-01  1.1763774261980E+00 -1.9643872297574E-01
    62  6.1000000000000E-01  1.1584346669035E+00 -2.5018712503367E-01
    63  6.2000000000000E-01  1.1387831530917E+00 -3.0299586838351E-01
    64  6.3000000000000E-01  1.1174469004923E+00 -3.5472564303783E-01
    65  6.4000000000000E-01  1.0944541699016E+00 -4.0524173771482E-01
    66  6.5000000000000E-01  1.0698374285966E+00 -4.5441431668154E-01
    67  6.6000000000000E-01  1.0436332962822E+00 -5.0211867611682E-01
    68  6.7000000000000E-01  1.0158824757588E+00 -5.4823548013772E-01
    69  6.8000000000000E-01  9.8662966855784E-01 -5.9265097670412E-01
    70  6.9000000000000E-01  9.5592347585585E-01 -6.3525719368240E-01
    71  7.0000000000000E-01  9.2381628503272E-01 -6.7595211540704E-01
    72  7.1000000000000E-01  8.9036414230074E-01 -7.1463984013157E-01
    73  7.2000000000000E-01  8.5562661188390E-01 -7.5123071880504E-01
    74  7.3000000000000E-01  8.1966662228116E-01 -7.8564147564965E-01
    75  7.4000000000000E-01  7.8255030019781E-01 -8.1779531104638E-01
    76  7.5000000000000E-01  7.4434679277734E-01 -8.4762198726242E-01
    77  7.6000000000000E-01  7.0512807881165E-01 -8.7505789757310E-01
    78  7.7000000000000E-01  6.6496876964970E-01 -9.0004611934521E-01
    79  7.8000000000000E-01  6.2394590056454E-01 -9.2253645165692E-01
    80  7.9000000000000E-01  5.8213871337407E-01 -9.4248543803196E-01
    81  8.0000000000000E-01  5.3962843114403E-01 -9.5985637486433E-01
    82  8.1000000000000E-01  4.9649802583049E-01 -9.7461930610230E-01
    83  8.2000000000000E-01  4.5283197974467E-01 -9.8675100475048E-01
    84  8.3000000000000E-01  4.0871604174438E-01 -9.9623494173300E-01
    85  8.4000000000000E-01  3.6423697907432E-01 -1.0030612426438E+00
    86  8.5000000000000E-01  3.1948232579122E-01 -1.0072266328877E+00
    87  8.6000000000000E-01  2.7454012871959E-01 -1.0087343716940E+00
    88  8.7000000000000E-01  2.2949869189011E-01 -1.0075941754562E+00
    89  8.8000000000000E-01  1.8444632041397E-01 -1.0038221308264E+00
    90  8.9000000000000E-01  1.3947106474509E-01 -9.9744059796309E-01
    91  9.0000000000000E-01  9.4660466275383E-02 -9.8847810430122E-01
    92  9.1000000000000E-01  5.0101305198738E-02 -9.7696922918443E-01
    93  9.2000000000000E-01  5.8793515651875E-03 -9.6295447966878E-01
    94  9.3000000000000E-01 -3.7920879570691E-02 -9.4648015777771E-01
    95  9.4000000000000E-01 -8.1216368024641E-02 -9.2759821945920E-01
    96  9.5000000000000E-01 -1.2392582252304E-01 -9.0636612546815E-01
    97  9.6000000000000E-01 -1.6596990807945E-01 -8.8284668437012E-01
    98  9.7000000000000E-01 -2.0727146590957E-01 -8.5710788783770E-01
    99  9.8000000000000E-01 -2.4775572512180E-01 -8.2922273838766E-01
   100  9.9000000000000E-01 -2.8735050545802E-01 -7.9926906968546E-01
   101  1.0000000000000E+00 -3.2598641040008E-01 -7.6732935952477E-01
   102  1.0100000000000E+00 -3.6359701000012E-01 -7.3349053557332E-01
   103  1.0200000000000E+00 -4.0011901283864E-01 -6.9784377396165E-01
   104  1.0300000000000E+00 -4.3549242656130E-01 -6.6048429077994E-01
   105  1.0400000000000E+00 -4.6966070649538E-01 -6.2151112653884E-01
   106  1.0500000000000E+00 -5.0257089189728E-01 -5.8102692364396E-01
   107  1.0600000000000E+00 -5.3417372943546E-01 -5.3913769692903E-01
   108  1.0700000000000E+00 -5.6442378356634E-01 -4.9595259729241E-01
   109  1.0800000000000E+00 -5.9327953351545E-01 -4.5158366848122E-01
   110  1.0900000000000E+00 -6.2070345663118E-01 -4.0614559707204E-01
   111  1.1000000000000E+00 -6.4666209793380E-01 -3.5975545570165E-01
   112  1.1100000000000E+00 -6.7112612573833E-01 -3.1253243960906E-01
   113  1.1200000000000E+00 -6.9407037328479E-01 -2.6459759656030E-01
   114  1.1300000000000E+00 -7.1547386636502E-01 -2.1607355023682E-01
   115  1.1400000000000E+00 -7.3531983698895E-01 -1.6708421718292E-01
   116  1.1500000000000E+00 -7.5359572318721E-01 -1.1775451741957E-01
   117  1.1600000000000E+00 -7.7029315509897E-01 -6.8210078848001E-02
   118  1.1700000000000E+00 -7.8540792754498E-01 -1.8576935581104E-02
   119  1.1800000000000E+00 -7.9893995933506E-01  3.1018779642776E-02
   120  1.1900000000000E+00 -8.1089323960688E-01  8.0451148793353E-02
   121  1.2000000000000E+00 -8.2127576153831E-01  1.2959478744261E-01
   122  1.2100000000000E+00 -8.3009944381907E-01  1.7832516901677E-01
   123  1.2200000000000E+00 -8.3738004030825E-01  2.2651895418862E-01
   124  1.2300000000000E+00 -8.4313703834281E-01  2.7405432517731E-01
   125  1.2400000000000E+00 -8.4739354619789E-01  3.2081132470971E-01
   126  1.2500000000000E+00 -8.5017617023254E-01  3.6667219938459E-01
   127  1.2600000000000E+00 -8.5151488228500E-01  4.1152174717009E-01
   128  1.2700000000000E+00 -8.5144287790807E-01  4.5524766875554E-01
   129  1.2800000000000E+00 -8.4999642605951E-01  4.9774092247085E-01
   130  1.2900000000000E+00 -8.4721471088306E-01  5.3889608248054E-01
   131  1.3000000000000E+00 -8.4313966623319E-01  5.7861169995657E-01
   132  1.3100000000000E+00 -8.3781580361110E-01  6.1679066693111E-01
   133  1.3200000000000E+00 -8.3129003419078E-01  6.5334058253162E-01
   134  1.3300000000000E+00 -8.2361148562152E-01  6.8817412130314E-01
   135  1.3400000000000E+00 -8.1483131429829E-01  7.2120940332672E-01
   136  1.3500000000000E+00 -8.0500251379282E-01  7.5237036585102E-01
   137  1.3600000000000E+00 -7.9417972013657E-01  7.8158713616197E-01
   138  1.3700000000000E+00 -7.8241901464227E-01  8.0879640542754E-01
   139  1.3800000000000E+00 -7.6977772494332E-01  8.3394180326792E-01
   140  1.3900000000000E+00 -7.5631422491961E-01  8.5697427281554E-01
   141  1.4000000000000E+00 -7.4208773416544E-01  8.7785244604743E-01
   142  1.4100000000000E+00 -7.2715811763951E-01  8.9654301919037E-01
   143  1.4200000000000E+00 -7.1158568611859E-01  9.1302112801938E-01
   144  1.4300000000000E+00 -6.9543099805615E-01  9.2727072289117E-01
   145  1.4400000000000E+00 -6.7875466342443E-01  9.3928494337714E-01
   146  1.4500000000000E+00 -6.6161715009374E-01  9.4906649238205E-01
   147  1.4600000000000E+00 -6.4407859327651E-01  9.5662800966054E-01
   148  1.4700000000000E+00 -6.2619860853501E-01  9.6199244466531E-01
   149  1.4800000000000E+00 -6.0803610882271E-01  9.6519342868683E-01
   150  1.4900000000000E+00 -5.8964912599774E-01  9.6627564626697E-01
   151  1.5000000000000E+00 -5.7109463721533E-01  9.6529520589398E-01
   152  1.5100000000000E+00 -5.5242839657326E-01  9.6232001000793E-01
   153  1.5200000000000E+00 -5.3370477239560E-01  9.5743012481180E-01
   154  1.5300000000000E+00 -5.1497659014955E-01  9.5071814689843E-01
   155  1.5400000000000E+00 -4.9629498333199E-01  9.4228958639972E-01
   156  1.5500000000000E+00 -4.7770913904855E-01  9.3226215091979E-01
   157  1.5600000000000E+00 -4.5926531061281E-01  9.2075725643555E-01
   158  1.5700000000000E+00 -4.4100609849662E-01  9.0789253675919E-01
   159  1.5800000000000E+00 -4.2297053424305E-01  8.9378147083858E-01
   160  1.5900000000000E+00 -4.0519424697268E-01  8.7853390379410E-01
   161  1.6000000000000E+00 -3.8770907652090E-01  8.6224950055774E-01
   162  1.6100000000000E+00 -3.7054678397828E-01  8.4506323383418E-01
   163  1.6200000000000E+00 -3.5371872716292E-01  8.2688593672297E-01
   164  1.6300000000000E+00 -3.3725801367139E-01  8.0793001753413E-01
   165  1.6400000000000E+00 -3.2119570223035E-01  7.8841894766628E-01
   166  1.6500000000000E+00 -3.0554053857010E-01  7.6832817620562E-01
   167  1.6600000000000E+00 -2.9030949518956E-01  7.4776234553724E-01
   168  1.6700000000000E+00 -2.7551503793503E-01  7.2679634714045E-01
   169  1.6800000000000E+00 -2.6116768250533E-01  7.0550539847428E-01
   170  1.6900000000000E+00 -2.4727577477135E-01  6.8396085506977E-01
   171  1.7000000000000E+00 -2.3384563617381E-01  6.6223055193873E-01
   172  1.7100000000000E+00 -2.2088168330182E-01  6.4037885356654E-01
   173  1.7200000000000E+00 -2.0838654516257E-01  6.1846670467882E-01
   174  1.7300000000000E+00 -1.9636117799949E-01  5.9655168212781E-01
   175  1.7400000000000E+00 -1.8480497752132E-01  5.7468804814575E-01
   176  1.7500000000000E+00 -1.7371588841694E-01  5.5292680519862E-01
   177  1.7600000000000E+00 -1.6309051104158E-01  5.3131575264966E-01
   178  1.7700000000000E+00 -1.5292420517168E-01  5.0989954541758E-01
   179  1.7800000000000E+00 -1.4321119073691E-01  4.8871975478982E-01
   180  1.7900000000000E+00 -1.3394464544906E-01  4.6781493152620E-01
   181  1.8000000000000E+00 -1.2511679925866E-01  4.4722067136284E-01
   182  1.8100000000000E+00 -1.1671902558130E-01  4.2696968300080E-01
   183  1.8200000000000E+00 -1.0874192924648E-01  4.0709185863855E-01
   184  1.8300000000000E+00 -1.0117543113214E-01  3.8761434708207E-01
   185  1.8400000000000E+00 -9.4008849458973E-02  3.6856162944149E-01
   186  1.8500000000000E+00 -8.7230977728193E-02  3.4995559739869E-01
   187  1.8600000000000E+00 -8.0830159296530E-02  3.3181563400629E-01
   188  1.8700000000000E+00 -7.4794358591675E-02  3.1415869695492E-01
   189  1.8800000000000E+00 -6.9111228980449E-02  2.9699940422393E-01
   190  1.8900000000000E+00 -6.3768177310720E-02  2.8035012200677E-01
   191  1.9000000000000E+00 -5.8752425156480E-02  2.6422105478651E-01
   192  1.9100000000000E+00 -5.4051066803355E-02  2.4862033741200E-01
   193  1.9200000000000E+00 -4.9651124019174E-02  2.3355412900536E-01
   194  1.9300000000000E+00 -4.5539597661552E-02  2.1902670852454E-01
   195  1.9400000000000E+00 -4.1703516180632E-02  2.0504057177657E-01
   196  1.9500000000000E+00 -3.8129981081367E-02  1.9159652966923E-01
   197  1.9600000000000E+00 -3.4806209415310E-02  1.7869380747345E-01
   198  1.9700000000000E+00 -3.1719573376927E-02  1.6633014485735E-01
   199  1.9800000000000E+00 -2.8857637084037E-02  1.5450189644226E-01
   200  1.9900000000000E+00 -2.6208190626059E-02  1.4320413262205E-01
   201  2.0000000000000E+00 -2.3759281467407E-02  1.3243074037986E-01
   202  2.0100000000000E+00 -2.1499243296381E-02  1.2217452382998E-01
   203  2.0200000000000E+00 -1.9416722412572E-02  1.1242730420883E-01
   204  2.0300000000000E+00 -1.7500701747935E-02  1.0318001903530E-01
   205  2.0400000000000E+00 -1.5740522618256E-02  9.4422820159989E-02
   206  2.0500000000000E+00 -1.4125904303003E-02  8.6145170422424E-02
   207  2.0600000000000E+00 -1.2646961552248E-02  7.8335938637487E-02
   208  2.0700000000000E+00 -1.1294220119532E-02  7.0983492634438E-02
   209  2.0800000000000E+00 -1.0058630419583E-02  6.4075790076901E-02
   210  2.0900000000000E+00 -8.9315794090683E-03  5.7600466797733E-02
   211  2.1000000000000E+00 -7.9049007876569E-03  5.1544922389565E-02
   212  2.1100000000000E+00 -6.9708836152938E-03  4.5896402800291E-02
   213  2.1200000000000E+00 -6.1222794398640E-03  4.0642079692225E-02
   214  2.1300000000000E+00 -5.3523080275347E-03  3.5769126333832E-02
   215  2.1400000000000E+00 -4.6546620511444E-03  3.1264790905837E-02
   216  2.1500000000000E+00 -4.0235094501382E-03  2.7116461328039E-02
   217  2.1600000000000E+00 -3.4534921617148E-03  2.3311715392629E-02
   218  2.1700000000000E+00 -2.9397467934993E-03  1.9838465141222E-02
   219  2.1800000000000E+00 -2.4778702155571E-03  1.6684857113631E-02
   220  2.1900000000000E+00 -2.0635431975785E-03  1.3837795865232E-02
   221  2.2000000000000E+00 -1.6924477810329E-03  1.1282694663943E-02
   222  2.2100000000000E+00 -1.3618890310586E-03  9.0102208001889E-03
   223  2.2200000000000E+00 -1.0698402194542E-03  7.0123128925574E-03
   224  2.2300000000000E+00 -8.1458488772705E-04  5.2807313391488E-03
   225  2.2400000000000E+00 -5.9483888798363E-04  3.8076355597352E-03
   226  2.2500000000000E+00 -4.0972230365306E-04  2.5855158391331E-03
   227  2.2600000000000E+00 -2.5880395744236E-04  1.6074949058411E-03
   228  2.2700000000000E+00 -1.4187941352610E-04  8.6613335890607E-04
   229  2.2800000000000E+00 -5.8905738603296E-05  3.5305358371851E-04
   230  2.2900000000000E+00 -1.3355571977021E-05  7.8333513338966E-05
   231  2.3000000000000E+00  1.0953185746047E-06 -6.3617408210968E-06
   232  2.3100000000000E+00  4.8721186713401E-07 -2.7904795143054E-06
   233  2.32 -0.  0.
   234  2.33  0. -0.
   235  2.34  0. -0.
   236  2.35  0. -0.
   237  2.36  0.  0.
   238  2.37  0.  0.
   239  2.38  0.  0.
   240  2.39  0.  0.
   241  2.40  0.  0.
   242  2.41  0.  0.
   243  2.42  0.  0.
   244  2.43  0.  0.
   245  2.44  0.  0.
   246  2.45  0.  0.
   247  2.46  0.  0.
   248  2.47  0.  0.
   249  2.48  0.  0.
   250  2.49  0.  0.
   251  2.50  0.  0.
   252  2.51  0.  0.
   253  2.52  0.  0.
   254  2.53  0.  0.
   255  2.54  0.  0.
   256  2.55  0.  0.
   257  2.56  0.  0.
   258  2.57  0.  0.
   259  2.58  0.  0.
   260  2.59  0.  0.
   261  2.60  0.  0.
   262  2.61  0.  0.
   263  2.62  0.  0.
   264  2.63  0.  0.
   265  2.64  0.  0.
   266  2.65  0.  0.
   267  2.66  0.  0.
   268  2.67  0.  0.
   269  2.68  0.  0.
   270  2.69  0.  0.
   271  2.70  0.  0.
   272  2.71  0.  0.
   273  2.72  0.  0.
   274  2.73  0.  0.
   275  2.74  0.  0.
   276  2.75  0.  0.
   277  2.76  0.  0.
   278  2.77  0.  0.
   279  2.78  0.  0.
   280  2.79  0.  0.
   281  2.80  0.  0.
   282  2.81  0.  0.
   283  2.82  0.  0.
   284  2.83  0.  0.
   285  2.84  0.  0.
   286  2.85  0.  0.
   287  2.86  0.  0.
   288  2.87  0.  0.
   289  2.88  0.  0.
   290  2.89  0.  0.
   291  2.90  0.  0.
   292  2.91  0.  0.
   293  2.92  0.  0.
   294  2.93  0.  0.
   295  2.94  0.  0.
   296  2.95  0.  0.
   297  2.96  0.  0.
   298  2.97  0.  0.
   299  2.98  0.  0.
   300  2.99  0.  0.
   301  3.00  0.  0.
   302  3.01  0.  0.
   303  3.02  0.  0.
   304  3.03  0.  0.
   305  3.04  0.  0.
   306  3.05  0.  0.
   307  3.06  0.  0.
   308  3.07  0.  0.
   309  3.08  0.  0.
   310  3.09  0.  0.
   311  3.10  0.  0.
   312  3.11  0.  0.
   313  3.12  0.  0.
   314  3.13  0.  0.
   315  3.14  0.  0.
   316  3.15  0.  0.
   317  3.16  0.  0.
   318  3.17  0.  0.
   319  3.18  0.  0.
   320  3.19  0.  0.
   321  3.20  0.  0.
   322  3.21  0.  0.
   323  3.22  0.  0.
   324  3.23  0.  0.
   325  3.24  0.  0.
   326  3.25  0.  0.
   327  3.26  0.  0.
   328  3.27  0.  0.
   329  3.28  0.  0.
   330  3.29  0.  0.
   331  3.30  0.  0.
   332  3.31  0.  0.
   333  3.32  0.  0.
   334  3.33  0.  0.
   335  3.34  0.  0.
   336  3.35  0.  0.
   337  3.36  0.  0.
   338  3.37  0.  0.
   339  3.38  0.  0.
   340  3.39  0.  0.
   341  3.40  0.  0.
   342  3.41  0.  0.
   343  3.42  0.  0.
   344  3.43  0.  0.
   345  3.44  0.  0.
   346  3.45  0.  0.
   347  3.46  0.  0.
   348  3.47  0.  0.
   349  3.48  0.  0.
   350  3.49  0.  0.
   351  3.50  0.  0.
   352  3.51  0.  0.
   353  3.52  0.  0.
   354  3.53  0.  0.
   355  3.54  0.  0.
   356  3.55  0.  0.
   357  3.56  0.  0.
   358  3.57  0.  0.
   359  3.58  0.  0.
   360  3.59  0.  0.
   361  3.60  0.  0.
   362  3.61  0.  0.
   363  3.62  0.  0.
   364  3.63  0.  0.
   365  3.64  0.  0.
   366  3.65  0.  0.
   367  3.66  0.  0.
   368  3.67  0.  0.
   369  3.68  0.  0.
   370  3.69  0.  0.
   371  3.70  0.  0.
   372  3.71  0.  0.
   373  3.72  0.  0.
   374  3.73  0.  0.
   375  3.74  0.  0.
   376  3.75  0.  0.
   377  3.76  0.  0.
   378  3.77  0.  0.
   379  3.78  0.  0.
   380  3.79  0.  0.
   381  3.80  0.  0.
   382  3.81  0.  0.
   383  3.82  0.  0.
   384  3.83  0.  0.
   385  3.84  0.  0.
   386  3.85  0.  0.
   387  3.86  0.  0.
   388  3.87  0.  0.
   389  3.88  0.  0.
   390  3.89  0.  0.
   391  3.90  0.  0.
   392  3.91  0.  0.
   393  3.92  0.  0.
   394  3.93  0.  0.
   395  3.94  0.  0.
   396  3.95  0.  0.
   397  3.96  0.  0.
   398  3.97  0.  0.
   399  3.98  0.  0.
   400  3.99  0.  0.
   401  4.00  0.  0.
   402  4.01  0.  0.
   403  4.02  0.  0.
   404  4.03  0.  0.
   405  4.04  0.  0.
   406  4.05  0.  0.
   407  4.06  0.  0.
   408  4.07  0.  0.
   409  4.08  0.  0.
   410  4.09  0.  0.
   411  4.10  0.  0.
   412  4.11  0.  0.
   413  4.12  0.  0.
   414  4.13  0.  0.
   415  4.14  0.  0.
   416  4.15  0.  0.
   417  4.16  0.  0.
   418  4.17  0.  0.
   419  4.18  0.  0.
   420  4.19  0.  0.
   421  4.20  0.  0.
   422  4.21  0.  0.
   423  4.22  0.  0.
   424  4.23  0.  0.
   425  4.24  0.  0.
   426  4.25  0.  0.
   427  4.26  0.  0.
   428  4.27  0.  0.
   429  4.28  0.  0.
   430  4.29  0.  0.
   431  4.30  0.  0.
   432  4.31  0.  0.
   433  4.32  0.  0.
   434  4.33  0.  0.
   435  4.34  0.  0.
   436  4.35  0.  0.
   437  4.36  0.  0.
   438  4.37  0.  0.
   439  4.38  0.  0.
   440  4.39  0.  0.
   441  4.40  0.  0.
   442  4.41  0.  0.
   443  4.42  0.  0.
   444  4.43  0.  0.
   445  4.44  0.  0.
   446  4.45  0.  0.
   447  4.46  0.  0.
   448  4.47  0.  0.
   449  4.48  0.  0.
   450  4.49  0.  0.
   451  4.50  0.  0.
   452  4.51  0.  0.
   453  4.52  0.  0.
   454  4.53  0.  0.
   455  4.54  0.  0.
   456  4.55  0.  0.
   457  4.56  0.  0.
   458  4.57  0.  0.
   459  4.58  0.  0.
   460  4.59  0.  0.
   461  4.60  0.  0.
   462  4.61  0.  0.
   463  4.62  0.  0.
   464  4.63  0.  0.
   465  4.64  0.  0.
   466  4.65  0.  0.
   467  4.66  0.  0.
   468  4.67  0.  0.
   469  4.68  0.  0.
   470  4.69  0.  0.
   471  4.70  0.  0.
   472  4.71  0.  0.
   473  4.72  0.  0.
   474  4.73  0.  0.
   475  4.74  0.  0.
   476  4.75  0.  0.
   477  4.76  0.  0.
   478  4.77  0.  0.
   479  4.78  0.  0.
   480  4.79  0.  0.
   481  4.80  0.  0.
   482  4.81  0.  0.
   483  4.82  0.  0.
   484  4.83  0.  0.
   485  4.84  0.  0.
   486  4.85  0.  0.
   487  4.86  0.  0.
   488  4.87  0.  0.
   489  4.88  0.  0.
   490  4.89  0.  0.
   491  4.90  0.  0.
   492  4.91  0.  0.
   493  4.92  0.  0.
   494  4.93  0.  0.
   495  4.94  0.  0.
   496  4.95  0.  0.
   497  4.96  0.  0.
   498  4.97  0.  0.
   499  4.98  0.  0.
   500  4.99  0.  0.
   1                         1.5977464205020E+00 -3.0627859582703E-01
     1  0.0000000000000E+00 -2.2399184590460E-10  1.7372684540939E-10
     2  1.0000000000000E-02  7.5500171862053E-04  6.6743190767253E-04
     3  2.0000000000000E-02  3.0194814629588E-03  2.6661569679155E-03
     4  3.0000000000000E-02  6.7918459229633E-03  5.9854928376108E-03
     5  4.0000000000000E-02  1.2069383603249E-02  1.0607733151498E-02
     6  5.0000000000000E-02  1.8848183334706E-02  1.6508290546205E-02
     7  6.0000000000000E-02  2.7123023945853E-02  2.3655892079617E-02
     8  7.0000000000000E-02  3.6887237705357E-02  3.2012823882306E-02
     9  8.0000000000000E-02  4.8132550371130E-02  4.1535221703981E-02
    10  9.0000000000000E-02  6.0848900878100E-02  5.2173403862036E-02
    11  1.0000000000000E-01  7.5024243864484E-02  6.3872242962812E-02
    12  1.1000000000000E-01  9.0644338373849E-02  7.6571572648960E-02
    13  1.2000000000000E-01  1.0769252617641E-01  9.0206625529470E-02
    14  1.3000000000000E-01  1.2614950322712E-01  1.0470849837238E-01
    15  1.4000000000000E-01  1.4599308781954E-01  1.2000464058460E-01
    16  1.5000000000000E-01  1.6719798900306E-01  1.3601936196845E-01
    17  1.6000000000000E-01  1.8973557880715E-01  1.5267435573091E-01
    18  1.7000000000000E-01  2.1357367175985E-01  1.6988923272895E-01
    19  1.8000000000000E-01  2.3867631509984E-01  1.8758206296247E-01
    20  1.9000000000000E-01  2.6500359296296E-01  2.0566992037535E-01
    21  2.0000000000000E-01  2.9251144767606E-01  2.2406942709436E-01
    22  2.1000000000000E-01  3.2115152111584E-01  2.4269729332474E-01
    23  2.2000000000000E-01  3.5087101888845E-01  2.6147084922984E-01
    24  2.3000000000000E-01  3.8161259986072E-01  2.8030856524943E-01
    25  2.4000000000000E-01  4.1331429332665E-01  2.9913055745645E-01
    26  2.5000000000000E-01  4.4590944582692E-01  3.1785907471443E-01
    27  2.6000000000000E-01  4.7932669935662E-01  3.3641896457665E-01
    28  2.7000000000000E-01  5.1349000240021E-01  3.5473811506158E-01
    29  2.8000000000000E-01  5.4831865492554E-01  3.7274786964785E-01
    30  2.9000000000000E-01  5.8372738815411E-01  3.9038341305262E-01
    31  3.0000000000000E-01  6.1962647960473E-01  4.0758412559043E-01
    32  3.1000000000000E-01  6.5592190358628E-01  4.2429390415256E-01
    33  3.2000000000000E-01  6.9251551699495E-01  4.4046144809969E-01
    34  3.3000000000000E-01  7.2930527995498E-01  4.5604050862023E-01
    35  3.4000000000000E-01  7.6618551053289E-01  4.7099010037302E-01
    36  3.5000000000000E-01  8.0304717245573E-01  4.8527467450336E-01
    37  3.6000000000000E-01  8.3977819447708E-01  4.9886425239528E-01
    38  3.7000000000000E-01  8.7626381976258E-01  5.1173451979735E-01
    39  3.8000000000000E-01  9.1238698341216E-01  5.2386688123411E-01
    40  3.9000000000000E-01  9.4802871600078E-01  5.3524847488770E-01
    41  4.0000000000000E-01  9.8306857080539E-01  5.4587214840269E-01
    42  4.1000000000000E-01  1.0173850721947E+00  5.5573639633101E-01
    43  4.2000000000000E-01  1.0508561824910E+00  5.6484526018985E-01
    44  4.3000000000000E-01  1.0833597844719E+00  5.7320819235312E-01
    45  4.4000000000000E-01  1.1147741765633E+00  5.8083988523464E-01
    46  4.5000000000000E-01  1.1449785776877E+00  5.8776006744635E-01
    47  4.6000000000000E-01  1.1738536386671E+00  5.9399326882725E-01
    48  4.7000000000000E-01  1.2012819570468E+00  5.9956855643588E-01
    49  4.8000000000000E-01  1.2271485921968E+00  6.0451924378018E-01
    50  4.9000000000000E-01  1.2513415775647E+00  6.0888257572244E-01
    51  5.0000000000000E-01  1.2737524269969E+00  6.1269939164175E-01
    52  5.1000000000000E-01  1.2942766321099E+00  6.1601376956189E-01
    53  5.2000000000000E-01  1.3128141477869E+00  6.1887265405709E-01
    54  5.3000000000000E-01  1.3292698629803E+00  6.2132547083153E-01
    55  5.4000000000000E-01  1.3435540541364E+00  6.2342373092964E-01
    56  5.5000000000000E-01  1.3555828187031E+00  6.2522062757259E-01
    57  5.6000000000000E-01  1.3652784863478E+00  6.2677062863255E-01
    58  5.7000000000000E-01  1.3725700056902E+00  6.2812906774849E-01
    59  5.8000000000000E-01  1.3773933045444E+00  6.2935173705705E-01
    60  5.9000000000000E-01  1.3796916218638E+00  6.3049448445871E-01
    61  6.0000000000000E-01  1.3794158097881E+00  6.3161281826330E-01
    62  6.1000000000000E-01  1.3765246044043E+00  6.3276152196136E-01
    63  6.2000000000000E-01  1.3709848640458E+00  6.3399428174840E-01
    64  6.3000000000000E-01  1.3627717741693E+00  6.3536332928975E-01
    65  6.4000000000000E-01  1.3518690180609E+00  6.3691910205489E-01
    66  6.5000000000000E-01  1.3382689128337E+00  6.3870992337330E-01
    67  6.6000000000000E-01  1.3219725103804E+00  6.4078170417069E-01
    68  6.7000000000000E-01  1.3029896631430E+00  6.4317766813591E-01
    69  6.8000000000000E-01  1.2813390547481E+00  6.4593810184771E-01
    70  6.9000000000000E-01  1.2570481957345E+00  6.4910013115720E-01
    71  7.0000000000000E-01  1.2301533847650E+00  6.5269752488017E-01
    72  7.1000000000000E-01  1.2006996358690E+00  6.5676052660365E-01
    73  7.2000000000000E-01  1.1687405724021E+00  6.6131571515699E-01
    74  7.3000000000000E-01  1.1343382885351E+00  6.6638589404059E-01
    75  7.4000000000000E-01  1.0975631792002E+00  6.7199000984793E-01
    76  7.5000000000000E-01  1.0584937395156E+00  6.7814309946134E-01
    77  7.6000000000000E-01  1.0172163347995E+00  6.8485626555074E-01
    78  7.7000000000000E-01  9.7382494235004E-01  6.9213667966066E-01
    79  7.8000000000000E-01  9.2842086622781E-01  6.9998761193557E-01
    80  7.9000000000000E-01  8.8111242631967E-01  7.0840848631031E-01
    81  8.0000000000000E-01  8.3201462299669E-01  7.1739495978207E-01
    82  8.1000000000000E-01  7.8124877869939E-01  7.2693902418673E-01
    83  8.2000000000000E-01  7.2894215779576E-01  7.3702912872561E-01
    84  8.3000000000000E-01  6.7522756606110E-01  7.4765032133202E-01
    85  8.4000000000000E-01  6.2024293112498E-01  7.5878440683163E-01
    86  8.5000000000000E-01  5.6413086522159E-01  7.7041011973743E-01
    87  8.6000000000000E-01  5.0703821156644E-01  7.8250330943187E-01
    88  8.7000000000000E-01  4.4911557566638E-01  7.9503713542430E-01
    89  8.8000000000000E-01  3.9051684285321E-01  8.0798227033403E-01
    90  8.9000000000000E-01  3.3139868331416E-01  8.2130710823779E-01
    91  9.0000000000000E-01  2.7192004587806E-01  8.3497797603471E-01
    92  9.1000000000000E-01  2.1224164180396E-01  8.4895934552363E-01
    93  9.2000000000000E-01  1.5252541981200E-01  8.6321404395493E-01
    94  9.3000000000000E-01  9.2934033593842E-02  8.7770346091208E-01
    95  9.4000000000000E-01  3.3630303045150E-02  8.9238774949615E-01
    96  9.5000000000000E-01 -2.5223329526302E-02  9.0722601992786E-01
    97  9.6000000000000E-01 -8.3465346943568E-02  9.2217652384488E-01
    98  9.7000000000000E-01 -1.4093570715341E-01  9.3719682775640E-01
    99  9.8000000000000E-01 -1.9747639433213E-01  9.5224397431906E-01
   100  9.9000000000000E-01 -2.5293196972273E-01  9.6727463031651E-01
   101  1.0000000000000E+00 -3.0715012076909E-01  9.8224522045748E-01
   102  1.0100000000000E+00 -3.5998220705259E-01  9.9711204635039E-01
   103  1.0200000000000E+00 -4.1128380146883E-01  1.0118313902645E+00
   104  1.0300000000000E+00 -4.6091522500903E-01  1.0263596035449E+00
   105  1.0400000000000E+00 -5.0874207343144E-01  1.0406531798073E+00
   106  1.0500000000000E+00 -5.5463573402601E-01  1.0546688133008E+00
   107  1.0600000000000E+00 -5.9847389059047E-01  1.0683634430774E+00
   108  1.0700000000000E+00 -6.4014101465055E-01  1.0816942838597E+00
   109  1.0800000000000E+00 -6.7952884087246E-01  1.0946188447347E+00