Tl    ONCVPSP-4.0.1  r_core=   3.00237   3.20658   3.00237
     81.0000     13.0000      230118    zatom,zion,pspd
     8       2   2     4   600     0    pspcod,pspxc,lmax,lloc,mmax,r2well
  5.99000000  7.00000000  0.00000000    rchrg fchrg qchrg
     2     2     2     0     0    nproj
     1     1           extension_switch
   0                         4.6743459655346E+00  7.3518270873057E-01
     1  0.0000000000000E+00 -6.2130856015585E-13  1.5530632335725E-12
     2  1.0000000000000E-02  2.1642834045207E-02 -1.1962600596737E-02
     3  2.0000000000000E-02  4.3273039432910E-02 -2.3902251043463E-02
     4  3.0000000000000E-02  6.4878009855455E-02 -3.5796057059342E-02
     5  4.0000000000000E-02  8.6445183640308E-02 -4.7621235942003E-02
     6  5.0000000000000E-02  1.0796206590631E-01 -5.9355171957468E-02
     7  6.0000000000000E-02  1.2941625052682E-01 -7.0975471251980E-02
     8  7.0000000000000E-02  1.5079544183610E-01 -8.2460016128197E-02
     9  8.0000000000000E-02  1.7208747601589E-01 -9.3787018529747E-02
    10  9.0000000000000E-02  1.9328034210004E-01 -1.0493507258007E-01
    11  1.0000000000000E-01  2.1436220253580E-01 -1.1588320602382E-01
    12  1.1000000000000E-01  2.3532141324159E-01 -1.2661093042174E-01
    13  1.2000000000000E-01  2.5614654310240E-01 -1.3709828995309E-01
    14  1.3000000000000E-01  2.7682639284512E-01 -1.4732590868309E-01
    15  1.4000000000000E-01  2.9735001323792E-01 -1.5727503615664E-01
    16  1.5000000000000E-01  3.1770672255928E-01 -1.6692759118389E-01
    17  1.6000000000000E-01  3.3788612328433E-01 -1.7626620368769E-01
    18  1.7000000000000E-01  3.5787811793801E-01 -1.8527425448780E-01
    19  1.8000000000000E-01  3.7767292406668E-01 -1.9393591290229E-01
    20  1.9000000000000E-01  3.9726108828233E-01 -2.0223617205168E-01
    21  2.0000000000000E-01  4.1663349933555E-01 -2.1016088175787E-01
    22  2.1000000000000E-01  4.3578140017656E-01 -2.1769677893575E-01
    23  2.2000000000000E-01  4.5469639896560E-01 -2.2483151538218E-01
    24  2.3000000000000E-01  4.7337047899755E-01 -2.3155368287394E-01
    25  2.4000000000000E-01  4.9179600750794E-01 -2.3785283549335E-01
    26  2.5000000000000E-01  5.0996574333104E-01 -2.4371950910780E-01
    27  2.6000000000000E-01  5.2787284338372E-01 -2.4914523793731E-01
    28  2.7000000000000E-01  5.4551086795208E-01 -2.5412256815202E-01
    29  2.8000000000000E-01  5.6287378476133E-01 -2.5864506845011E-01
    30  2.9000000000000E-01  5.7995597181288E-01 -2.6270733757479E-01
    31  3.0000000000000E-01  5.9675221897618E-01 -2.6630500873813E-01
    32  3.1000000000000E-01  6.1325772832649E-01 -2.6943475092803E-01
    33  3.2000000000000E-01  6.2946811322379E-01 -2.7209426708398E-01
    34  3.3000000000000E-01  6.4537939613152E-01 -2.7428228913650E-01
    35  3.4000000000000E-01  6.6098800517794E-01 -2.7599856991435E-01
    36  3.5000000000000E-01  6.7629076946696E-01 -2.7724387193341E-01
    37  3.6000000000000E-01  6.9128491314902E-01 -2.7801995309034E-01
    38  3.7000000000000E-01  7.0596804826680E-01 -2.7832954929427E-01
    39  3.8000000000000E-01  7.2033816639461E-01 -2.7817635407898E-01
    40  3.9000000000000E-01  7.3439362909438E-01 -2.7756499524811E-01
    41  4.0000000000000E-01  7.4813315721501E-01 -2.7650100861553E-01
    42  4.1000000000000E-01  7.6155581906627E-01 -2.7499080891251E-01
    43  4.2000000000000E-01  7.7466101750217E-01 -2.7304165794326E-01
    44  4.3000000000000E-01  7.8744847595277E-01 -2.7066163007952E-01
    45  4.4000000000000E-01  7.9991822344753E-01 -2.6785957519456E-01
    46  4.5000000000000E-01  8.1207057867688E-01 -2.6464507914589E-01
    47  4.6000000000000E-01  8.2390613314268E-01 -2.6102842192520E-01
    48  4.7000000000000E-01  8.3542573345196E-01 -2.5702053360268E-01
    49  4.8000000000000E-01  8.4663046281179E-01 -2.5263294820142E-01
    50  4.9000000000000E-01  8.5752162178678E-01 -2.4787775564588E-01
    51  5.0000000000000E-01  8.6810070838391E-01 -2.4276755193618E-01
    52  5.1000000000000E-01  8.7836939753266E-01 -2.3731538770764E-01
    53  5.2000000000000E-01  8.8832952003145E-01 -2.3153471534219E-01
    54  5.3000000000000E-01  8.9798304103434E-01 -2.2543933480468E-01
    55  5.4000000000000E-01  9.0733203815428E-01 -2.1904333838387E-01
    56  5.5000000000000E-01  9.1637867926213E-01 -2.1236105452324E-01
    57  5.6000000000000E-01  9.2512520006260E-01 -2.0540699093238E-01
    58  5.7000000000000E-01  9.3357388153030E-01 -1.9819577717414E-01
    59  5.8000000000000E-01  9.4172702729091E-01 -1.9074210692711E-01
    60  5.9000000000000E-01  9.4958694103417E-01 -1.8306068012655E-01
    61  6.0000000000000E-01  9.5715590404619E-01 -1.7516614518954E-01
    62  6.1000000000000E-01  9.6443615294994E-01 -1.6707304153282E-01
    63  6.2000000000000E-01  9.7142985774337E-01 -1.5879574259313E-01
    64  6.3000000000000E-01  9.7813910022483E-01 -1.5034839956071E-01
    65  6.4000000000000E-01  9.8456585289566E-01 -1.4174488603712E-01
    66  6.5000000000000E-01  9.9071195842956E-01 -1.3299874382779E-01
    67  6.6000000000000E-01  9.9657910979776E-01 -1.2412313007834E-01
    68  6.7000000000000E-01  1.0021688311380E+00 -1.1513076596215E-01
    69  6.8000000000000E-01  1.0074824594546E+00 -1.0603388712325E-01
    70  6.9000000000000E-01  1.0125211272341E+00 -9.6844196075530E-02
    71  7.0000000000000E-01  1.0172857460606E+00 -8.7572816754745E-02
    72  7.1000000000000E-01  1.0217769913123E+00 -7.8230251414608E-02
    73  7.2000000000000E-01  1.0259952880164E+00 -6.8826340052705E-02
    74  7.3000000000000E-01  1.0299407979394E+00 -5.9370222544663E-02
    75  7.4000000000000E-01  1.0336134079841E+00 -4.9870303658569E-02
    76  7.5000000000000E-01  1.0370127199634E+00 -4.0334221112340E-02
    77  7.6000000000000E-01  1.0401380418144E+00 -3.0768816828930E-02
    78  7.7000000000000E-01  1.0429883803139E+00 -2.1180111533794E-02
    79  7.8000000000000E-01  1.0455624353518E+00 -1.1573282829178E-02
    80  7.9000000000000E-01  1.0478585958131E+00 -1.9526468687220E-03
    81  8.0000000000000E-01  1.0498749371153E+00  7.6783562557499E-03
    82  8.1000000000000E-01  1.0516092204403E+00  1.7317173315860E-02
    83  8.2000000000000E-01  1.0530588936982E+00  2.6962144849802E-02
    84  8.3000000000000E-01  1.0542210942498E+00  3.6612508093456E-02
    85  8.4000000000000E-01  1.0550926534126E+00  4.6268395880552E-02
    86  8.5000000000000E-01  1.0556701027655E+00  5.5930831465956E-02
    87  8.6000000000000E-01  1.0559496822633E+00  6.5601719242297E-02
    88  8.7000000000000E-01  1.0559273501636E+00  7.5283831334398E-02
    89  8.8000000000000E-01  1.0555987947637E+00  8.4980790071890E-02
    90  8.9000000000000E-01  1.0549594479349E+00  9.4697046355589E-02
    91  9.0000000000000E-01  1.0540045004398E+00  1.0443785394993E-01
    92  9.1000000000000E-01  1.0527289190046E+00  1.1420923974899E-01
    93  9.2000000000000E-01  1.0511274651174E+00  1.2401797008046E-01
    94  9.3000000000000E-01  1.0491947155106E+00  1.3387151312768E-01
    95  9.4000000000000E-01  1.0469250842840E+00  1.4377799756647E-01
    96  9.5000000000000E-01  1.0443128466123E+00  1.5374616752898E-01
    97  9.6000000000000E-01  1.0413521639784E+00  1.6378533402352E-01
    98  9.7000000000000E-01  1.0380371108639E+00  1.7390532295412E-01
    99  9.8000000000000E-01  1.0343617028223E+00  1.8411641989983E-01
   100  9.9000000000000E-01  1.0303199258539E+00  1.9442931182829E-01
   101  1.0000000000000E+00  1.0259057669943E+00  2.0485502593293E-01
   102  1.0100000000000E+00  1.0211132460219E+00  2.1540486579740E-01
   103  1.0200000000000E+00  1.0159364481854E+00  2.2609034510434E-01
   104  1.0300000000000E+00  1.0103695578427E+00  2.3692311911855E-01
   105  1.0400000000000E+00  1.0044068929024E+00  2.4791491418722E-01
   106  1.0500000000000E+00  9.9804293994775E-01  2.5907745551109E-01
   107  1.0600000000000E+00  9.9127238992365E-01  2.7042239345158E-01
   108  1.0700000000000E+00  9.8409017425918E-01  2.8196122864854E-01
   109  1.0800000000000E+00  9.7649150129496E-01  2.9370523623263E-01
   110  1.0900000000000E+00  9.6847189288155E-01  3.0566538942415E-01
   111  1.1000000000000E+00  9.6002722101127E-01  3.1785228281754E-01
   112  1.1100000000000E+00  9.5115374434322E-01  3.3027605565617E-01
   113  1.1200000000000E+00  9.4184814447885E-01  3.4294631540797E-01
   114  1.1300000000000E+00  9.3210756184395E-01  3.5587206195516E-01
   115  1.1400000000000E+00  9.2192963103138E-01  3.6906161271476E-01
   116  1.1500000000000E+00  9.1131251545817E-01  3.8252252900765E-01
   117  1.1600000000000E+00  9.0025494119068E-01  3.9626154399411E-01
   118  1.1700000000000E+00  8.8875622979161E-01  4.1028449249301E-01
   119  1.1800000000000E+00  8.7681633004369E-01  4.2459624299909E-01
   120  1.1900000000000E+00  8.6443584840645E-01  4.3920063220984E-01
   121  1.2000000000000E+00  8.5161607806457E-01  4.5410040236771E-01
   122  1.2100000000000E+00  8.3835902642889E-01  4.6929714171821E-01
   123  1.2200000000000E+00  8.2466744095446E-01  4.8479122837639E-01
   124  1.2300000000000E+00  8.1054483314396E-01  5.0058177788563E-01
   125  1.2400000000000E+00  7.9599550060895E-01  5.1666659474304E-01
   126  1.2500000000000E+00  7.8102454706666E-01  5.3304212815410E-01
   127  1.2600000000000E+00  7.6563790015537E-01  5.4970343226712E-01
   128  1.2700000000000E+00  7.4984232695747E-01  5.6664413112436E-01
   129  1.2800000000000E+00  7.3364544712605E-01  5.8385638855203E-01
   130  1.2900000000000E+00  7.1705574351768E-01  6.0133088319558E-01
   131  1.3000000000000E+00  7.0008257024183E-01  6.1905678888947E-01
   132  1.3100000000000E+00  6.8273615804538E-01  6.3702176053333E-01
   133  1.3200000000000E+00  6.6502761695895E-01  6.5521192562691E-01
   134  1.3300000000000E+00  6.4696893614099E-01  6.7361188159706E-01
   135  1.3400000000000E+00  6.2857298086465E-01  6.9220469902887E-01
   136  1.3500000000000E+00  6.0985348660195E-01  7.1097193089238E-01
   137  1.3600000000000E+00  5.9082505017016E-01  7.2989362783373E-01
   138  1.3700000000000E+00  5.7150311791499E-01  7.4894835957723E-01
   139  1.3800000000000E+00  5.5190397091618E-01  7.6811324246208E-01
   140  1.3900000000000E+00  5.3204470721147E-01  7.8736397311292E-01
   141  1.4000000000000E+00  5.1194322104591E-01  8.0667486822087E-01
   142  1.4100000000000E+00  4.9161817916461E-01  8.2601891038610E-01
   143  1.4200000000000E+00  4.7108899417790E-01  8.4536779994988E-01
   144  1.4300000000000E+00  4.5037579503938E-01  8.6469201271881E-01
   145  1.4400000000000E+00  4.2949939468812E-01  8.8396086345993E-01
   146  1.4500000000000E+00  4.0848125491781E-01  9.0314257502117E-01
   147  1.4600000000000E+00  3.8734344854647E-01  9.2220435290736E-01
   148  1.4700000000000E+00  3.6610861897133E-01  9.4111246511860E-01
   149  1.4800000000000E+00  3.4479993720437E-01  9.5983232703419E-01
   150  1.4900000000000E+00  3.2344105649450E-01  9.7832859110274E-01
   151  1.5000000000000E+00  3.0205606465262E-01  9.9656524107708E-01
   152  1.5100000000000E+00  2.8066943420596E-01  1.0145056905107E+00
   153  1.5200000000000E+00  2.5930597051767E-01  1.0321128852120E+00
   154  1.5300000000000E+00  2.3799075801685E-01  1.0493494093340E+00
   155  1.5400000000000E+00  2.1674910469337E-01  1.0661775947554E+00
   156  1.5500000000000E+00  1.9560648501975E-01  1.0825596333958E+00
   157  1.5600000000000E+00  1.7458848147082E-01  1.0984576920863E+00
   158  1.5700000000000E+00  1.5372072481870E-01  1.1138340296064E+00
   159  1.5800000000000E+00  1.3302883338784E-01  1.1286511154794E+00
   160  1.5900000000000E+00  1.1253835146070E-01  1.1428717501109E+00
   161  1.6000000000000E+00  9.2274687030460E-02  1.1564591858386E+00
   162  1.6100000000000E+00  7.2263049101797E-02  1.1693772484577E+00
   163  1.6200000000000E+00  5.2528384744974E-02  1.1815904587732E+00
   164  1.6300000000000E+00  3.3095316112003E-02  1.1930641537264E+00
   165  1.6400000000000E+00  1.3988077626195E-02  1.2037646066404E+00
   166  1.6500000000000E+00 -4.7695464414796E-03  1.2136591461200E+00
   167  1.6600000000000E+00 -2.3154283794769E-02  1.2227162731482E+00
   168  1.6700000000000E+00 -4.1143435118472E-02  1.2309057759158E+00
   169  1.6800000000000E+00 -5.8714934054254E-02  1.2381988419256E+00
   170  1.6900000000000E+00 -7.5847405932735E-02  1.2445681669174E+00
   171  1.7000000000000E+00 -9.2520225050849E-02  1.2499880601634E+00
   172  1.7100000000000E+00 -1.0871357028609E-01  1.2544345456950E+00
   173  1.7200000000000E+00 -1.2440847884317E-01  1.2578854590271E+00
   174  1.7300000000000E+00 -1.3958689793299E-01  1.2603205389618E+00
   175  1.7400000000000E+00 -1.5423173418895E-01  1.2617215140631E+00
   176  1.7500000000000E+00 -1.6832690063201E-01  1.2620721834102E+00
   177  1.7600000000000E+00 -1.8185736100243E-01  1.2613584912539E+00
   178  1.7700000000000E+00 -1.9480917128373E-01  1.2595685952174E+00
   179  1.7800000000000E+00 -2.0716951825294E-01  1.2566929277038E+00
   180  1.7900000000000E+00 -2.1892675489976E-01  1.2527242501927E+00
   181  1.8000000000000E+00 -2.3007043256737E-01  1.2476577001310E+00
   182  1.8100000000000E+00 -2.4059132967753E-01  1.2414908301478E+00
   183  1.8200000000000E+00 -2.5048147691378E-01  1.2342236393474E+00
   184  1.8300000000000E+00 -2.5973417874791E-01  1.2258585964612E+00
   185  1.8400000000000E+00 -2.6834403120683E-01  1.2164006546675E+00
   186  1.8500000000000E+00 -2.7630693578950E-01  1.2058572579160E+00
   187  1.8600000000000E+00 -2.8362010945660E-01  1.1942383386232E+00
   188  1.8700000000000E+00 -2.9028209062872E-01  1.1815563066360E+00
   189  1.8800000000000E+00 -2.9629274114281E-01  1.1678260293908E+00
   190  1.8900000000000E+00 -3.0165324413026E-01  1.1530648032279E+00
   191  1.9000000000000E+00 -3.0636609779468E-01  1.1372923158525E+00
   192  1.9100000000000E+00 -3.1043510508137E-01  1.1205305999649E+00
   193  1.9200000000000E+00 -3.1386535924540E-01  1.1028039781186E+00
   194  1.9300000000000E+00 -3.1666322533970E-01  1.0841389988931E+00
   195  1.9400000000000E+00 -3.1883631765943E-01  1.0645643645041E+00
   196  1.9500000000000E+00 -3.2039347319316E-01  1.0441108500052E+00
   197  1.9600000000000E+00 -3.2134472114685E-01  1.0228112142689E+00
   198  1.9700000000000E+00 -3.2170124861969E-01  1.0007001029621E+00
   199  1.9800000000000E+00 -3.2147536252668E-01  9.7781394376909E-01
   200  1.9900000000000E+00 -3.2068044787580E-01  9.5419083414134E-01
   201  2.0000000000000E+00 -3.1933092252172E-01  9.2987042188331E-01
   202  2.0100000000000E+00 -3.1744218853141E-01  9.0489377891530E-01
   203  2.0200000000000E+00 -3.1503058030988E-01  8.7930326857970E-01
   204  2.0300000000000E+00 -3.1211330964691E-01  8.5314240688521E-01
   205  2.0400000000000E+00 -3.0870840785742E-01  8.2645571810877E-01
   206  2.0500000000000E+00 -3.0483466518276E-01  7.9928858508051E-01
   207  2.0600000000000E+00 -3.0051156775092E-01  7.7168709533789E-01
   208  2.0700000000000E+00 -2.9575923196020E-01  7.4369788127445E-01
   209  2.0800000000000E+00 -2.9059833821981E-01  7.1536796654673E-01
   210  2.0900000000000E+00 -2.8505005644843E-01  6.8674456549267E-01
   211  2.1000000000000E+00 -2.7913601656478E-01  6.5787520236619E-01
   212  2.1100000000000E+00 -2.7287830107664E-01  6.2880796026518E-01
   213  2.1200000000000E+00 -2.6629942091430E-01  5.9959158785432E-01
   214  2.1300000000000E+00 -2.5942225056454E-01  5.7027531806094E-01
   215  2.1400000000000E+00 -2.5226996953148E-01  5.4090873897980E-01
   216  2.1500000000000E+00 -2.4486600112820E-01  5.1154164999023E-01
   217  2.1600000000000E+00 -2.3723395090990E-01  4.8222391927049E-01
   218  2.1700000000000E+00 -2.2939754453467E-01  4.5300534012656E-01
   219  2.1800000000000E+00 -2.2138056535233E-01  4.2393548732992E-01
   220  2.1900000000000E+00 -2.1320679190691E-01  3.9506357381898E-01
   221  2.2000000000000E+00 -2.0489993555342E-01  3.6643830822765E-01
   222  2.2100000000000E+00 -1.9648357838970E-01  3.3810775370322E-01
   223  2.2200000000000E+00 -1.8798111170303E-01  3.1011918847205E-01
   224  2.2300000000000E+00 -1.7941567512980E-01  2.8251896860840E-01
   225  2.2400000000000E+00 -1.7081009672438E-01  2.5535239345412E-01
   226  2.2500000000000E+00 -1.6218683413029E-01  2.2866357413040E-01
   227  2.2600000000000E+00 -1.5356791704303E-01  2.0249530557239E-01
   228  2.2700000000000E+00 -1.4497489115116E-01  1.7688894251023E-01
   229  2.2800000000000E+00 -1.3642876373579E-01  1.5188427980444E-01
   230  2.2900000000000E+00 -1.2794995110449E-01  1.2751943753320E-01
   231  2.3000000000000E+00 -1.1955822802865E-01  1.0383075121139E-01
   232  2.3100000000000E+00 -1.1127267934920E-01  8.0852667512123E-02
   233  2.3200000000000E+00 -1.0311165390553E-01  5.8617645836204E-02
   234  2.3300000000000E+00 -9.5092720936991E-02  3.7156066062043E-02
   235  2.3400000000000E+00 -8.7232629097580E-02  1.6496142787771E-02
   236  2.3500000000000E+00 -7.9547268217271E-02 -3.3361536402907E-03
   237  2.3600000000000E+00 -7.2051633932438E-02 -2.2317169044796E-02
   238  2.3700000000000E+00 -6.4759795298786E-02 -4.0425630033493E-02
   239  2.3800000000000E+00 -5.7684865493961E-02 -5.7642701082711E-02
   240  2.3900000000000E+00 -5.0838975702281E-02 -7.3952033891357E-02
   241  2.4000000000000E+00 -4.4233252265584E-02 -8.9339808828623E-02
   242  2.4100000000000E+00 -3.7877797174546E-02 -1.0379476832128E-01
   243  2.4200000000000E+00 -3.1781671963965E-02 -1.1730824205205E-01
   244  2.4300000000000E+00 -2.5952885061696E-02 -1.2987416387309E-01
   245  2.4400000000000E+00 -2.0398382631193E-02 -1.4148908036118E-01
   246  2.4500000000000E+00 -1.5124042940397E-02 -1.5215215095851E-01
   247  2.4600000000000E+00 -1.0134674270512E-02 -1.6186513968761E-01
   248  2.4700000000000E+00 -5.4340163696740E-03 -1.7063239844882E-01
   249  2.4800000000000E+00 -1.0247454514763E-03 -1.7846084192090E-01
   250  2.4900000000000E+00  3.0915172841852E-03 -1.8535991413724E-01
   251  2.5000000000000E+00  6.9141936371999E-03 -1.9134154682621E-01
   252  2.5100000000000E+00  1.0443732935190E-02 -1.9642010961711E-01
   253  2.5200000000000E+00  1.3681593159288E-02 -2.0061235226212E-01
   254  2.5300000000000E+00  1.6630218731799E-02 -2.0393733904341E-01
   255  2.5400000000000E+00  1.9293015033506E-02 -2.0641637554303E-01
   256  2.5500000000000E+00  2.1674319739498E-02 -2.0807292800214E-01
   257  2.5600000000000E+00  2.3779371069987E-02 -2.0893253551362E-01
   258  2.5700000000000E+00  2.5614273054309E-02 -2.0902271529602E-01
   259  2.5800000000000E+00  2.7185957928372E-02 -2.0837286134771E-01
   260  2.5900000000000E+00  2.8502145790910E-02 -2.0701413679176E-01
   261  2.6000000000000E+00  2.9571301644120E-02 -2.0497936022239E-01
   262  2.6100000000000E+00  3.0402589968220E-02 -2.0230288641921E-01
   263  2.6200000000000E+00  3.1005826977787E-02 -1.9902048179089E-01
   264  2.6300000000000E+00  3.1391430712779E-02 -1.9516919492212E-01
   265  2.6400000000000E+00  3.1570369135751E-02 -1.9078722263960E-01
   266  2.6500000000000E+00  3.1554106402306E-02 -1.8591377200265E-01
   267  2.6600000000000E+00  3.1354547481296E-02 -1.8058891864587E-01
   268  2.6700000000000E+00  3.0983981311806E-02 -1.7485346192426E-01
   269  2.6800000000000E+00  3.0455022679501E-02 -1.6874877730182E-01
   270  2.6900000000000E+00  2.9780553006849E-02 -1.6231666645109E-01
   271  2.7000000000000E+00  2.8973660253437E-02 -1.5559920553421E-01
   272  2.7100000000000E+00  2.8047578121266E-02 -1.4863859213415E-01
   273  2.7200000000000E+00  2.7015624769765E-02 -1.4147699132519E-01
   274  2.7300000000000E+00  2.5891141240082E-02 -1.3415638136044E-01
   275  2.7400000000000E+00  2.4687429793599E-02 -1.2671839946634E-01
   276  2.7500000000000E+00  2.3417692367557E-02 -1.1920418822758E-01
   277  2.7600000000000E+00  2.2094969351681E-02 -1.1165424304934E-01
   278  2.7700000000000E+00  2.0732078889055E-02 -1.0410826118043E-01
   279  2.7800000000000E+00  1.9341556898999E-02 -9.6604992767979E-02
   280  2.7900000000000E+00  1.7935598026194E-02 -8.9182094429915E-02
   281  2.8000000000000E+00  1.6525999795363E-02 -8.1875990333061E-02
   282  2.8100000000000E+00  1.5124096190646E-02 -7.4721710888337E-02
   283  2.8200000000000E+00  1.3740711195412E-02 -6.7752775408715E-02
   284  2.8300000000000E+00  1.2386133721680E-02 -6.1001121946905E-02
   285  2.8400000000000E+00  1.1069999283075E-02 -5.4496835114076E-02
   286  2.8500000000000E+00  9.8012526819449E-03 -4.8268050636787E-02
   287  2.8600000000000E+00  8.5874742787325E-03 -4.2339479082288E-02
   288  2.8700000000000E+00  7.4350917070012E-03 -3.6732853042428E-02
   289  2.8800000000000E+00  6.3509464721435E-03 -3.1470317670567E-02
   290  2.8900000000000E+00  5.3416394084833E-03 -2.6572997454657E-02
   291  2.9000000000000E+00  4.4125455028080E-03 -2.2058845548971E-02
   292  2.9100000000000E+00  3.5681082358555E-03 -1.7943273858342E-02
   293  2.9200000000000E+00  2.8117921578742E-03 -1.4239041564094E-02
   294  2.9300000000000E+00  2.1460311809395E-03 -1.0956135230375E-02
   295  2.9400000000000E+00  1.5722165172213E-03 -8.1017360399146E-03
   296  2.9500000000000E+00  1.0907133742616E-03 -5.6804001691222E-03
   297  2.9600000000000E+00  7.0087670531888E-04 -3.6942005813071E-03
   298  2.9700000000000E+00  3.9953535752534E-04 -2.1339946583465E-03
   299  2.9800000000000E+00  1.8539957919572E-04 -1.0048746531469E-03
   300  2.9900000000000E+00  5.9268455938768E-05 -3.2664736673931E-04
   301  3.0000000000000E+00  5.4785595637698E-06 -3.0260547962473E-05
   302  3.0100000000000E+00 -5.3676110570138E-06  3.0747884678007E-05
   303  3.0200000000000E+00 -2.3410943942785E-07  1.3504145628656E-06
   304  3.03  0. -0.
   305  3.04 -0.  0.
   306  3.05 -0.  0.
   307  3.06 -0.  0.
   308  3.07 -0.  0.
   309  3.08  0.  0.
   310  3.09  0.  0.
   311  3.10  0.  0.
   312  3.11  0.  0.
   313  3.12  0.  0.
   314  3.13  0.  0.
   315  3.14  0.  0.
   316  3.15  0.  0.
   317  3.16  0.  0.
   318  3.17  0.  0.
   319  3.18  0.  0.
   320  3.19  0.  0.
   321  3.20  0.  0.
   322  3.21  0.  0.
   323  3.22  0.  0.
   324  3.23  0.  0.
   325  3.24  0.  0.
   326  3.25  0.  0.
   327  3.26  0.  0.
   328  3.27  0.  0.
   329  3.28  0.  0.
   330  3.29  0.  0.
   331  3.30  0.  0.
   332  3.31  0.  0.
   333  3.32  0.  0.
   334  3.33  0.  0.
   335  3.34  0.  0.
   336  3.35  0.  0.
   337  3.36  0.  0.
   338  3.37  0.  0.
   339  3.38  0.  0.
   340  3.39  0.  0.
   341  3.40  0.  0.
   342  3.41  0.  0.
   343  3.42  0.  0.
   344  3.43  0.  0.
   345  3.44  0.  0.
   346  3.45  0.  0.
   347  3.46  0.  0.
   348  3.47  0.  0.
   349  3.48  0.  0.
   350  3.49  0.  0.
   351  3.50  0.  0.
   352  3.51  0.  0.
   353  3.52  0.  0.
   354  3.53  0.  0.
   355  3.54  0.  0.
   356  3.55  0.  0.
   357  3.56  0.  0.
   358  3.57  0.  0.
   359  3.58  0.  0.
   360  3.59  0.  0.
   361  3.60  0.  0.
   362  3.61  0.  0.
   363  3.62  0.  0.
   364  3.63  0.  0.
   365  3.64  0.  0.
   366  3.65  0.  0.
   367  3.66  0.  0.
   368  3.67  0.  0.
   369  3.68  0.  0.
   370  3.69  0.  0.
   371  3.70  0.  0.
   372  3.71  0.  0.
   373  3.72  0.  0.
   374  3.73  0.  0.
   375  3.74  0.  0.
   376  3.75  0.  0.
   377  3.76  0.  0.
   378  3.77  0.  0.
   379  3.78  0.  0.
   380  3.79  0.  0.
   381  3.80  0.  0.
   382  3.81  0.  0.
   383  3.82  0.  0.
   384  3.83  0.  0.
   385  3.84  0.  0.
   386  3.85  0.  0.
   387  3.86  0.  0.
   388  3.87  0.  0.
   389  3.88  0.  0.
   390  3.89  0.  0.
   391  3.90  0.  0.
   392  3.91  0.  0.
   393  3.92  0.  0.
   394  3.93  0.  0.
   395  3.94  0.  0.
   396  3.95  0.  0.
   397  3.96  0.  0.
   398  3.97  0.  0.
   399  3.98  0.  0.
   400  3.99  0.  0.
   401  4.00  0.  0.
   402  4.01  0.  0.
   403  4.02  0.  0.
   404  4.03  0.  0.
   405  4.04  0.  0.
   406  4.05  0.  0.
   407  4.06  0.  0.
   408  4.07  0.  0.
   409  4.08  0.  0.
   410  4.09  0.  0.
   411  4.10  0.  0.
   412  4.11  0.  0.
   413  4.12  0.  0.
   414  4.13  0.  0.
   415  4.14  0.  0.
   416  4.15  0.  0.
   417  4.16  0.  0.
   418  4.17  0.  0.
   419  4.18  0.  0.
   420  4.19  0.  0.
   421  4.20  0.  0.
   422  4.21  0.  0.
   423  4.22  0.  0.
   424  4.23  0.  0.
   425  4.24  0.  0.
   426  4.25  0.  0.
   427  4.26  0.  0.
   428  4.27  0.  0.
   429  4.28  0.  0.
   430  4.29  0.  0.
   431  4.30  0.  0.
   432  4.31  0.  0.
   433  4.32  0.  0.
   434  4.33  0.  0.
   435  4.34  0.  0.
   436  4.35  0.  0.
   437  4.36  0.  0.
   438  4.37  0.  0.
   439  4.38  0.  0.
   440  4.39  0.  0.
   441  4.40  0.  0.
   442  4.41  0.  0.
   443  4.42  0.  0.
   444  4.43  0.  0.
   445  4.44  0.  0.
   446  4.45  0.  0.
   447  4.46  0.  0.
   448  4.47  0.  0.
   449  4.48  0.  0.
   450  4.49  0.  0.
   451  4.50  0.  0.
   452  4.51  0.  0.
   453  4.52  0.  0.
   454  4.53  0.  0.
   455  4.54  0.  0.
   456  4.55  0.  0.
   457  4.56  0.  0.
   458  4.57  0.  0.
   459  4.58  0.  0.
   460  4.59  0.  0.
   461  4.60  0.  0.
   462  4.61  0.  0.
   463  4.62  0.  0.
   464  4.63  0.  0.
   465  4.64  0.  0.
   466  4.65  0.  0.
   467  4.66  0.  0.
   468  4.67  0.  0.
   469  4.68  0.  0.
   470  4.69  0.  0.
   471  4.70  0.  0.
   472  4.71  0.  0.
   473  4.72  0.  0.
   474  4.73  0.  0.
   475  4.74  0.  0.
   476  4.75  0.  0.
   477  4.76  0.  0.
   478  4.77  0.  0.
   479  4.78  0.  0.
   480  4.79  0.  0.
   481  4.80  0.  0.
   482  4.81  0.  0.
   483  4.82  0.  0.
   484  4.83  0.  0.
   485  4.84  0.  0.
   486  4.85  0.  0.
   487  4.86  0.  0.
   488  4.87  0.  0.
   489  4.88  0.  0.
   490  4.89  0.  0.
   491  4.90  0.  0.
   492  4.91  0.  0.
   493  4.92  0.  0.
   494  4.93  0.  0.
   495  4.94  0.  0.
   496  4.95  0.  0.
   497  4.96  0.  0.
   498  4.97  0.  0.
   499  4.98  0.  0.
   500  4.99  0.  0.
   501  5.00  0.  0.
   502  5.01  0.  0.
   503  5.02  0.  0.
   504  5.03  0.  0.
   505  5.04  0.  0.
   506  5.05  0.  0.
   507  5.06  0.  0.
   508  5.07  0.  0.
   509  5.08  0.  0.
   510  5.09  0.  0.
   511  5.10  0.  0.
   512  5.11  0.  0.
   513  5.12  0.  0.
   514  5.13  0.  0.
   515  5.14  0.  0.
   516  5.15  0.  0.
   517  5.16  0.  0.
   518  5.17  0.  0.
   519  5.18  0.  0.
   520  5.19  0.  0.
   521  5.20  0.  0.
   522  5.21  0.  0.
   523  5.22  0.  0.
   524  5.23  0.  0.
   525  5.24  0.  0.
   526  5.25  0.  0.
   527  5.26  0.  0.
   528  5.27  0.  0.
   529  5.28  0.  0.
   530  5.29  0.  0.
   531  5.30  0.  0.
   532  5.31  0.  0.
   533  5.32  0.  0.
   534  5.33  0.  0.
   535  5.34  0.  0.
   536  5.35  0.  0.
   537  5.36  0.  0.
   538  5.37  0.  0.
   539  5.38  0.  0.
   540  5.39  0.  0.
   541  5.40  0.  0.
   542  5.41  0.  0.
   543  5.42  0.  0.
   544  5.43  0.  0.
   545  5.44  0.  0.
   546  5.45  0.  0.
   547  5.46  0.  0.
   548  5.47  0.  0.
   549  5.48  0.  0.
   550  5.49  0.  0.
   551  5.50  0.  0.
   552  5.51  0.  0.
   553  5.52  0.  0.
   554  5.53  0.  0.
   555  5.54  0.  0.
   556  5.55  0.  0.
   557  5.56  0.  0.
   558  5.57  0.  0.
   559  5.58  0.  0.
   560  5.59  0.  0.
   561  5.60  0.  0.
   562  5.61  0.  0.
   563  5.62  0.  0.
   564  5.63  0.  0.
   565  5.64  0.  0.
   566  5.65  0.  0.
   567  5.66  0.  0.
   568  5.67  0.  0.
   569  5.68  0.  0.
   570  5.69  0.  0.
   571  5.70  0.  0.
   572  5.71  0.  0.
   573  5.72  0.  0.
   574  5.73  0.  0.
   575  5.74  0.  0.
   576  5.75  0.  0.
   577  5.76  0.  0.
   578  5.77  0.  0.
   579  5.78  0.  0.
   580  5.79  0.  0.
   581  5.80  0.  0.
   582  5.81  0.  0.
   583  5.82  0.  0.
   584  5.83  0.  0.
   585  5.84  0.  0.
   586  5.85  0.  0.
   587  5.86  0.  0.
   588  5.87  0.  0.
   589  5.88  0.  0.
   590  5.89  0.  0.
   591  5.90  0.  0.
   592  5.91  0.  0.
   593  5.92  0.  0.
   594  5.93  0.  0.
   595  5.94  0.  0.
   596  5.95  0.  0.
   597  5.96  0.  0.
   598  5.97  0.  0.
   599  5.98  0.  0.
   600  5.99  0.  0.
   1                         3.5719730172325E+00  6.9299749785789E-01
     1  0.0000000000000E+00  9.2152223352127E-12 -1.2239011887294E-11
     2  1.0000000000000E-02  3.6494351089477E-04 -1.8983770570492E-04
     3  2.0000000000000E-02  1.4590788908248E-03 -7.5868767245751E-04
     4  3.0000000000000E-02  3.2803224521778E-03 -1.7045625477588E-03
     5  4.0000000000000E-02  5.8252072797859E-03 -3.0241570665510E-03
     6  5.0000000000000E-02  9.0888920609804E-03 -4.7128585132917E-03
     7  6.0000000000000E-02  1.3065173415228E-02 -6.7647613256957E-03
     8  7.0000000000000E-02  1.7746501691027E-02 -9.1726857971649E-03
     9  8.0000000000000E-02  2.3124000188539E-02 -1.1928200822684E-02
    10  9.0000000000000E-02  2.9187487757467E-02 -1.5021650621117E-02
    11  1.0000000000000E-01  3.5925504710651E-02 -1.8442185354793E-02
    12  1.1000000000000E-01  4.3325341985107E-02 -2.2177795555825E-02
    13  1.2000000000000E-01  5.1373073473458E-02 -2.6215350256896E-02
    14  1.3000000000000E-01  6.0053591440261E-02 -3.0540638713264E-02
    15  1.4000000000000E-01  6.9350644929283E-02 -3.5138415591574E-02
    16  1.5000000000000E-01  7.9246881059669E-02 -3.9992449490494E-02
    17  1.6000000000000E-01  8.9723889100988E-02 -4.5085574647830E-02
    18  1.7000000000000E-01  1.0076224720938E-01 -5.0399745678712E-02
    19  1.8000000000000E-01  1.1234157169959E-01 -5.5916095179842E-02
    20  1.9000000000000E-01  1.2444056872049E-01 -6.1614994025528E-02
    21  2.0000000000000E-01  1.3703708819466E-01 -6.7476114172441E-02
    22  2.1000000000000E-01  1.5010817987614E-01 -7.3478493781592E-02
    23  2.2000000000000E-01  1.6363015137416E-01 -7.9600604458226E-02
    24  2.3000000000000E-01  1.7757862798447E-01 -8.5820420402842E-02
    25  2.4000000000000E-01  1.9192861416465E-01 -9.2115489259763E-02
    26  2.5000000000000E-01  2.0665455648451E-01 -9.8463004443302E-02
    27  2.6000000000000E-01  2.2173040787746E-01 -1.0483987871586E-01
    28  2.7000000000000E-01  2.3712969301510E-01 -1.1122281878714E-01
    29  2.8000000000000E-01  2.5282557462257E-01 -1.1758840069916E-01