Bi    ONCVPSP-4.0.1  r_core=   2.80987   2.37652   2.71080
     83.0000     15.0000      230118    zatom,zion,pspd
     8       2   2     4   600     0    pspcod,pspxc,lmax,lloc,mmax,r2well
  5.99000000  6.00000000  0.00000000    rchrg fchrg qchrg
     2     2     2     0     0    nproj
     1     1           extension_switch
   0                         4.6951013240199E+00  6.6894345043301E-01
     1  0.0000000000000E+00  6.8271222009031E-12 -1.6584660728070E-11
     2  1.0000000000000E-02  1.8382313777323E-02 -2.8852501395128E-03
     3  2.0000000000000E-02  3.6771551094784E-02 -5.7910498593341E-03
     4  3.0000000000000E-02  5.5174566489759E-02 -8.7377979364693E-03
     5  4.0000000000000E-02  7.3598076843937E-02 -1.1745592356921E-02
     6  5.0000000000000E-02  9.2048593428300E-02 -1.4834081954984E-02
     7  6.0000000000000E-02  1.1053235499068E-01 -1.8022320482571E-02
     8  7.0000000000000E-02  1.2905526222536E-01 -2.1328623899016E-02
     9  8.0000000000000E-02  1.4762281395742E-01 -2.4770431655279E-02
    10  9.0000000000000E-02  1.6624004536592E-01 -2.8364172725793E-02
    11  1.0000000000000E-01  1.8491146856014E-01 -3.2125137116756E-02
    12  1.1000000000000E-01  2.0364101581120E-01 -3.6067353551359E-02
    13  1.2000000000000E-01  2.2243198572844E-01 -4.0203474000557E-02
    14  1.3000000000000E-01  2.4128699265528E-01 -4.4544665692612E-02
    15  1.4000000000000E-01  2.6020791954337E-01 -4.9100511195925E-02
    16  1.5000000000000E-01  2.7919587454652E-01 -5.3878917127940E-02
    17  1.6000000000000E-01  2.9825115155758E-01 -5.8886031998154E-02
    18  1.7000000000000E-01  3.1737319489185E-01 -6.4126173645976E-02
    19  1.8000000000000E-01  3.3656056829996E-01 -6.9601766684290E-02
    20  1.9000000000000E-01  3.5581092847180E-01 -7.5313290307668E-02
    21  2.0000000000000E-01  3.7512100317059E-01 -8.1259236770197E-02
    22  2.1000000000000E-01  3.9448657411344E-01 -8.7436080782323E-02
    23  2.2000000000000E-01  4.1390246469080E-01 -9.3838260019163E-02
    24  2.3000000000000E-01  4.3336253259353E-01 -1.0045816687464E-01
    25  2.4000000000000E-01  4.5285966739143E-01 -1.0728615153699E-01
    26  2.5000000000000E-01  4.7238579308282E-01 -1.1431053640186E-01
    27  2.6000000000000E-01  4.9193187560972E-01 -1.2151764177945E-01
    28  2.7000000000000E-01  5.1148793530842E-01 -1.2889182279314E-01
    29  2.8000000000000E-01  5.3104306424067E-01 -1.3641551730747E-01
    30  2.9000000000000E-01  5.5058544832637E-01 -1.4406930466542E-01
    31  3.0000000000000E-01  5.7010239417429E-01 -1.5183197495749E-01
    32  3.1000000000000E-01  5.8958036048439E-01 -1.5968060848896E-01
    33  3.2000000000000E-01  6.0900499387178E-01 -1.6759066505753E-01
    34  3.3000000000000E-01  6.2836116894074E-01 -1.7553608260086E-01
    35  3.4000000000000E-01  6.4763303241544E-01 -1.8348938472313E-01
    36  3.5000000000000E-01  6.6680405111396E-01 -1.9142179656206E-01
    37  3.6000000000000E-01  6.8585706353268E-01 -1.9930336841233E-01
    38  3.7000000000000E-01  7.0477433478999E-01 -2.0710310647909E-01
    39  3.8000000000000E-01  7.2353761466138E-01 -2.1478911009611E-01
    40  3.9000000000000E-01  7.4212819842249E-01 -2.2232871470741E-01
    41  4.0000000000000E-01  7.6052699020223E-01 -2.2968863987877E-01
    42  4.1000000000000E-01  7.7871456853584E-01 -2.3683514157713E-01
    43  4.2000000000000E-01  7.9667125379631E-01 -2.4373416793156E-01
    44  4.3000000000000E-01  8.1437717717334E-01 -2.5035151766832E-01
    45  4.4000000000000E-01  8.3181235086112E-01 -2.5665300039707E-01
    46  4.5000000000000E-01  8.4895673911011E-01 -2.6260459791236E-01
    47  4.6000000000000E-01  8.6579032979384E-01 -2.6817262566740E-01
    48  4.7000000000000E-01  8.8229320613903E-01 -2.7332389357366E-01
    49  4.8000000000000E-01  8.9844561826678E-01 -2.7802586528084E-01
    50  4.9000000000000E-01  9.1422805419352E-01 -2.8224681509769E-01
    51  5.0000000000000E-01  9.2962130994341E-01 -2.8595598172413E-01
    52  5.1000000000000E-01  9.4460655842855E-01 -2.8912371797945E-01
    53  5.2000000000000E-01  9.5916541675987E-01 -2.9172163573076E-01
    54  5.3000000000000E-01  9.7328001165975E-01 -2.9372274524856E-01
    55  5.4000000000000E-01  9.8693304265754E-01 -2.9510158824400E-01
    56  5.5000000000000E-01  1.0001078427605E+00 -2.9583436387388E-01
    57  5.6000000000000E-01  1.0127884363062E+00 -2.9589904703461E-01
    58  5.7000000000000E-01  1.0249595937178E+00 -2.9527549830583E-01
    59  5.8000000000000E-01  1.0366068828974E+00 -2.9394556494691E-01
    60  5.9000000000000E-01  1.0477167170151E+00 -2.9189317239564E-01
    61  6.0000000000000E-01  1.0582763984651E+00 -2.8910440576788E-01
    62  6.1000000000000E-01  1.0682741587838E+00 -2.8556758090889E-01
    63  6.2000000000000E-01  1.0776991943461E+00 -2.8127330460181E-01
    64  6.3000000000000E-01  1.0865416976764E+00 -2.7621452359604E-01
    65  6.4000000000000E-01  1.0947928842358E+00 -2.7038656217735E-01
    66  6.5000000000000E-01  1.1024450145717E+00 -2.6378714806257E-01
    67  6.6000000000000E-01  1.1094914117382E+00 -2.5641642646386E-01
    68  6.7000000000000E-01  1.1159264739226E+00 -2.4827696223167E-01
    69  6.8000000000000E-01  1.1217456822400E+00 -2.3937373004882E-01
    70  6.9000000000000E-01  1.1269456036811E+00 -2.2971409271404E-01
    71  7.0000000000000E-01  1.1315238892263E+00 -2.1930776761695E-01
    72  7.1000000000000E-01  1.1354792671655E+00 -2.0816678157207E-01
    73  7.2000000000000E-01  1.1388115316866E+00 -1.9630541424256E-01
    74  7.3000000000000E-01  1.1415215268239E+00 -1.8374013044807E-01
    75  7.4000000000000E-01  1.1436111258808E+00 -1.7048950171232E-01
    76  7.5000000000000E-01  1.1450832064664E+00 -1.5657411746631E-01
    77  7.6000000000000E-01  1.1459416213100E+00 -1.4201648638113E-01
    78  7.7000000000000E-01  1.1461911650391E+00 -1.2684092836000E-01
    79  7.8000000000000E-01  1.1458375371301E+00 -1.1107345777233E-01
    80  7.9000000000000E-01  1.1448873012597E+00 -9.4741658562975E-02
    81  8.0000000000000E-01  1.1433478413078E+00 -7.7874551916419E-02
    82  8.1000000000000E-01  1.1412273142775E+00 -6.0502457199459E-02
    83  8.2000000000000E-01  1.1385346004177E+00 -4.2656846945407E-02
    84  8.3000000000000E-01  1.1352792508471E+00 -2.4370196678534E-02
    85  8.4000000000000E-01  1.1314714329937E+00 -5.6758304088795E-03
    86  8.5000000000000E-01  1.1271218741752E+00  1.3392237345473E-02
    87  8.6000000000000E-01  1.1222418036546E+00  3.2799462129228E-02
    88  8.7000000000000E-01  1.1168428935183E+00  5.2510931816821E-02
    89  8.8000000000000E-01  1.1109371987231E+00  7.2491529665949E-02
    90  8.9000000000000E-01  1.1045370966715E+00  9.2706097240261E-02
    91  9.0000000000000E-01  1.0976552266694E+00  1.1311959628168E-01
    92  9.1000000000000E-01  1.0903044296268E+00  1.3369726861495E-01
    93  9.2000000000000E-01  1.0824976883567E+00  1.5440479317530E-01
    94  9.3000000000000E-01  1.0742480688266E+00  1.7520843926272E-01
    95  9.4000000000000E-01  1.0655686627083E+00  1.9607521514437E-01
    96  9.5000000000000E-01  1.0564725315680E+00  2.1697301115049E-01
    97  9.6000000000000E-01  1.0469726530249E+00  2.3787073643624E-01
    98  9.7000000000000E-01  1.0370818691987E+00  2.5873844861581E-01
    99  9.8000000000000E-01  1.0268128377501E+00  2.7954747551258E-01
   100  9.9000000000000E-01  1.0161779858053E+00  3.0027052831102E-01
   101  1.0000000000000E+00  1.0051894670367E+00  3.2088180544317E-01
   102  1.0100000000000E+00  9.9385912215496E-01  3.4135708659292E-01
   103  1.0200000000000E+00  9.8219844304575E-01  3.6167381625573E-01
   104  1.0300000000000E+00  9.7021854076436E-01  3.8181117635002E-01
   105  1.0400000000000E+00  9.5793011757701E-01  4.0175014743730E-01
   106  1.0500000000000E+00  9.4534344321416E-01  4.2147355817295E-01
   107  1.0600000000000E+00  9.3246833547545E-01  4.4096612267639E-01
   108  1.0700000000000E+00  9.1931414529949E-01  4.6021446557835E-01
   109  1.0800000000000E+00  9.0588974638474E-01  4.7920713457458E-01
   110  1.0900000000000E+00  8.9220352941969E-01  4.9793460038758E-01
   111  1.1000000000000E+00  8.7826340095218E-01  5.1638924411185E-01
   112  1.1100000000000E+00  8.6407678689913E-01  5.3456533199254E-01
   113  1.1200000000000E+00  8.4965064066886E-01  5.5245897776190E-01
   114  1.1300000000000E+00  8.3499145583928E-01  5.7006809273294E-01
   115  1.1400000000000E+00  8.2010528330650E-01  5.8739232392307E-01
   116  1.1500000000000E+00  8.0499775278966E-01  6.0443298055394E-01
   117  1.1600000000000E+00  7.8967409855004E-01  6.2119294934497E-01
   118  1.1700000000000E+00  7.7413918915489E-01  6.3767659908781E-01
   119  1.1800000000000E+00  7.5839756108978E-01  6.5388967505659E-01
   120  1.1900000000000E+00  7.4245345599783E-01  6.6983918387306E-01
   121  1.2000000000000E+00  7.2631086129941E-01  6.8553326950813E-01
   122  1.2100000000000E+00  7.0997355392278E-01  7.0098108115897E-01
   123  1.2200000000000E+00  6.9344514685418E-01  7.1619263379543E-01
   124  1.2300000000000E+00  6.7672913819562E-01  7.3117866222025E-01
   125  1.2400000000000E+00  6.5982896240002E-01  7.4595046953254E-01
   126  1.2500000000000E+00  6.4274804333648E-01  7.6051977092581E-01
   127  1.2600000000000E+00  6.2548984882343E-01  7.7489853378731E-01
   128  1.2700000000000E+00  6.0805794625493E-01  7.8909881509640E-01
   129  1.2800000000000E+00  5.9045605893403E-01  8.0313259714440E-01
   130  1.2900000000000E+00  5.7268812271901E-01  8.1701162261825E-01
   131  1.3000000000000E+00  5.5475834258183E-01  8.3074723010323E-01
   132  1.3100000000000E+00  5.3667124867403E-01  8.4435019106800E-01
   133  1.3200000000000E+00  5.1843175149381E-01  8.5783054939591E-01
   134  1.3300000000000E+00  5.0004519574885E-01  8.7119746452230E-01
   135  1.3400000000000E+00  4.8151741251245E-01  8.8445905922577E-01
   136  1.3500000000000E+00  4.6285476927630E-01  8.9762227310438E-01
   137  1.3600000000000E+00  4.4406421751114E-01  9.1069272274436E-01
   138  1.3700000000000E+00  4.2515333735709E-01  9.2367456955879E-01
   139  1.3800000000000E+00  4.0613037907799E-01  9.3657039623853E-01
   140  1.3900000000000E+00  3.8700430092938E-01  9.4938109271587E-01
   141  1.4000000000000E+00  3.6778480310678E-01  9.6210575249449E-01
   142  1.4100000000000E+00  3.4848235746062E-01  9.7474158014641E-01
   143  1.4200000000000E+00  3.2910823268545E-01  9.8728381071912E-01
   144  1.4300000000000E+00  3.0967451471473E-01  9.9972564173298E-01
   145  1.4400000000000E+00  2.9019412207765E-01  1.0120581783820E+00
   146  1.4500000000000E+00  2.7068081600147E-01  1.0242703924790E+00
   147  1.4600000000000E+00  2.5114920507154E-01  1.0363490956115E+00
   148  1.4700000000000E+00  2.3161474429115E-01  1.0482789268945E+00
   149  1.4800000000000E+00  2.1209372841463E-01  1.0600423556253E+00
   150  1.4900000000000E+00  1.9260327945945E-01  1.0716196990595E+00
   151  1.5000000000000E+00  1.7316132833660E-01  1.0829891554422E+00
   152  1.5100000000000E+00  1.5378659057226E-01  1.0941268523378E+00
   153  1.5200000000000E+00  1.3449853612874E-01  1.1050069102133E+00
   154  1.5300000000000E+00  1.1531735336726E-01  1.1156015211381E+00
   155  1.5400000000000E+00  9.6263907230666E-02  1.1258810423750E+00
   156  1.5500000000000E+00  7.7359691758963E-02  1.1358141045424E+00
   157  1.5600000000000E+00  5.8626777085555E-02  1.1453677339429E+00
   158  1.5700000000000E+00  4.0087751096518E-02  1.1545074885609E+00
   159  1.5800000000000E+00  2.1765655968935E-02  1.1631976071488E+00
   160  1.5900000000000E+00  3.6839198373514E-03  1.1714011707344E+00
   161  1.6000000000000E+00 -1.4133716130752E-02  1.1790802758024E+00
   162  1.6100000000000E+00 -3.1663274938817E-02  1.1861962183255E+00
   163  1.6200000000000E+00 -4.8880624903528E-02  1.1927096877459E+00
   164  1.6300000000000E+00 -6.5761564366992E-02  1.1985809699367E+00
   165  1.6400000000000E+00 -8.2281909584328E-02  1.2037701581116E+00
   166  1.6500000000000E+00 -9.8417585368147E-02  1.2082373705871E+00
   167  1.6600000000000E+00 -1.1414471804957E-01  1.2119429742512E+00
   168  1.6700000000000E+00 -1.2943973029570E-01  1.2148478125395E+00
   169  1.6800000000000E+00 -1.4427943730624E-01  1.2169134366831E+00
   170  1.6900000000000E+00 -1.5864114389696E-01  1.2181023389518E+00
   171  1.7000000000000E+00 -1.7250274196559E-01  1.2183781865897E+00
   172  1.7100000000000E+00 -1.8584280782612E-01  1.2177060551201E+00
   173  1.7200000000000E+00 -1.9864069889068E-01  1.2160526596767E+00
   174  1.7300000000000E+00 -2.1087664917410E-01  1.2133865830181E+00
   175  1.7400000000000E+00 -2.2253186309527E-01  1.2096784988749E+00
   176  1.7500000000000E+00 -2.3358860705108E-01  1.2049013892936E+00
   177  1.7600000000000E+00 -2.4403029824351E-01  1.1990307546512E+00
   178  1.7700000000000E+00 -2.5384159024800E-01  1.1920448150403E+00
   179  1.7800000000000E+00 -2.6300845482178E-01  1.1839247017544E+00
   180  1.7900000000000E+00 -2.7151825946430E-01  1.1746546376384E+00
   181  1.8000000000000E+00 -2.7935984025792E-01  1.1642221051189E+00
   182  1.8100000000000E+00 -2.8652356953626E-01  1.1526180007747E+00
   183  1.8200000000000E+00 -2.9300141794896E-01  1.1398367753723E+00
   184  1.8300000000000E+00 -2.9878701051613E-01  1.1258765583529E+00
   185  1.8400000000000E+00 -3.0387567629215E-01  1.1107392658303E+00
   186  1.8500000000000E+00 -3.0826449128763E-01  1.0944306912363E+00
   187  1.8600000000000E+00 -3.1195231432967E-01  1.0769605778336E+00
   188  1.8700000000000E+00 -3.1493981557347E-01  1.0583426724030E+00
   189  1.8800000000000E+00 -3.1722949741404E-01  1.0385947595069E+00
   190  1.8900000000000E+00 -3.1882570758273E-01  1.0177386758247E+00
   191  1.9000000000000E+00 -3.1973464425246E-01  9.9580030415915E-01
   192  1.9100000000000E+00 -3.1996435301475E-01  9.7280954681546E-01
   193  1.9200000000000E+00 -3.1952471563231E-01  9.4880027816160E-01
   194  1.9300000000000E+00 -3.1842743051291E-01  9.2381027628608E-01
   195  1.9400000000000E+00 -3.1668598489217E-01  8.9788113378070E-01
   196  1.9500000000000E+00 -3.1431561875574E-01  8.7105814778545E-01
   197  1.9600000000000E+00 -3.1133328057472E-01  8.4339018954534E-01
   198  1.9700000000000E+00 -3.0775757497030E-01  8.1492955383832E-01
   199  1.9800000000000E+00 -3.0360870246646E-01  7.8573178874372E-01
   200  1.9900000000000E+00 -2.9890839153267E-01  7.5585550633082E-01
   201  2.0000000000000E+00 -2.9367982315862E-01  7.2536217495138E-01
   202  2.0100000000000E+00 -2.8794754824442E-01  6.9431589392467E-01
   203  2.0200000000000E+00 -2.8173739812868E-01  6.6278315150351E-01
   204  2.0300000000000E+00 -2.7507638861557E-01  6.3083256710856E-01
   205  2.0400000000000E+00 -2.6799261789615E-01  5.9853461890403E-01
   206  2.0500000000000E+00 -2.6051515879693E-01  5.6596135788390E-01
   207  2.0600000000000E+00 -2.5267394581886E-01  5.3318610971316E-01
   208  2.0700000000000E+00 -2.4449965746095E-01  5.0028316564673E-01
   209  2.0800000000000E+00 -2.3602359435125E-01  4.6732746391904E-01
   210  2.0900000000000E+00 -2.2727755373242E-01  4.3439426305831E-01
   211  2.1000000000000E+00 -2.1829370083630E-01  4.0155880843128E-01
   212  2.1100000000000E+00 -2.0910443788997E-01  3.6889599445654E-01
   213  2.1200000000000E+00 -1.9974227122023E-01  3.3648002317905E-01
   214  2.1300000000000E+00 -1.9023967794784E-01  3.0438406602162E-01
   215  2.1400000000000E+00 -1.8062896535336E-01  2.7267988717098E-01
   216  2.1500000000000E+00 -1.7094219825062E-01  2.4143785403813E-01
   217  2.1600000000000E+00 -1.6121115019034E-01  2.1072705870988E-01
   218  2.1700000000000E+00 -1.5146723037139E-01  1.8061527781414E-01
   219  2.1800000000000E+00 -1.4174135679018E-01  1.5116861585014E-01
   220  2.1900000000000E+00 -1.3206384304362E-01  1.2245122385825E-01
   221  2.2000000000000E+00 -1.2246428454459E-01  9.4525007747749E-02
   222  2.2100000000000E+00 -1.1297144824470E-01  6.7449348708840E-02
   223  2.2200000000000E+00 -1.0361316568240E-01  4.1280832828675E-02
   224  2.2300000000000E+00 -9.4416230072684E-02  1.6072992364481E-02
   225  2.2400000000000E+00 -8.5406297927468E-02 -8.1239401403027E-03
   226  2.2500000000000E+00 -7.6607795701066E-02 -3.1263263614301E-02
   227  2.2600000000000E+00 -6.8043831931232E-02 -5.3302024874466E-02
   228  2.2700000000000E+00 -5.9736115323184E-02 -7.4201218546986E-02
   229  2.2800000000000E+00 -5.1704879193778E-02 -9.3925969422182E-02
   230  2.2900000000000E+00 -4.3968812661746E-02 -1.1244569625753E-01
   231  2.3000000000000E+00 -3.6544998935994E-02 -1.2973425613476E-01
   232  2.3100000000000E+00 -2.9448861027282E-02 -1.4577006854901E-01
   233  2.3200000000000E+00 -2.2694115163218E-02 -1.6053621853047E-01
   234  2.3300000000000E+00 -1.6292732153183E-02 -1.7402053818811E-01
   235  2.3400000000000E+00 -1.0254906906250E-02 -1.8621566618213E-01
   236  2.3500000000000E+00 -4.5890362793065E-03 -1.9711908470085E-01
   237  2.3600000000000E+00  6.9829462904171E-04 -2.0673313368247E-01
   238  2.3700000000000E+00  5.6023176540521E-03 -2.1506500210440E-01
   239  2.3800000000000E+00  1.0120078163678E-02 -2.2212669626526E-01
   240  2.3900000000000E+00  1.4250423083383E-02 -2.2793498511512E-01
   241  2.4000000000000E+00  1.7993980394885E-02 -2.3251132280945E-01
   242  2.4100000000000E+00  2.1353130196638E-02 -2.3588174876803E-01
   243  2.4200000000000E+00  2.4331967444315E-02 -2.3807676560067E-01
   244  2.4300000000000E+00  2.6936256554277E-02 -2.3913119543310E-01
   245  2.4400000000000E+00  2.9173378083313E-02 -2.3908401524596E-01
   246  2.4500000000000E+00  3.1052267721556E-02 -2.3797817190260E-01
   247  2.4600000000000E+00  3.2583347903508E-02 -2.3586037772045E-01
   248  2.4700000000000E+00  3.3778452365649E-02 -2.3278088750274E-01
   249  2.4800000000000E+00  3.4650744003327E-02 -2.2879325801083E-01
   250  2.4900000000000E+00  3.5214626433233E-02 -2.2395409099848E-01
   251  2.5000000000000E+00  3.5485649695439E-02 -2.1832276100134E-01
   252  2.5100000000000E+00  3.5480410544816E-02 -2.1196112911661E-01
   253  2.5200000000000E+00  3.5216447825087E-02 -2.0493324412139E-01
   254  2.5300000000000E+00  3.4712133443606E-02 -1.9730503234225E-01
   255  2.5400000000000E+00  3.3986559473192E-02 -1.8914397771023E-01
   256  2.5500000000000E+00  3.3059421942179E-02 -1.8051879352586E-01
   257  2.5600000000000E+00  3.1950901889171E-02 -1.7149908749723E-01
   258  2.5700000000000E+00  3.0681544262439E-02 -1.6215502162363E-01
   259  2.5800000000000E+00  2.9272135269351E-02 -1.5255696856175E-01
   260  2.5900000000000E+00  2.7743578782278E-02 -1.4277516611279E-01
   261  2.6000000000000E+00  2.6116772411265E-02 -1.3287937147877E-01
   262  2.6100000000000E+00  2.4412483864287E-02 -1.2293851696147E-01
   263  2.6200000000000E+00  2.2651230597371E-02 -1.1302037460518E-01
   264  2.6300000000000E+00  2.0853147292929E-02 -1.0319119206721E-01
   265  2.6400000000000E+00  1.9037876499161E-02 -9.3515386422696E-02
   266  2.6500000000000E+00  1.7224484956285E-02 -8.4055301944444E-02
   267  2.6600000000000E+00  1.5431278381567E-02 -7.4870721502897E-02
   268  2.6700000000000E+00  1.3675584131453E-02 -6.6018300070811E-02
   269  2.6800000000000E+00  1.1972588730583E-02 -5.7548682799722E-02
   270  2.6900000000000E+00  1.0336587166969E-02 -4.9509534473416E-02
   271  2.7000000000000E+00  8.7826891526278E-03 -4.1949690774600E-02
   272  2.7100000000000E+00  7.3248678997302E-03 -3.4914356574560E-02
   273  2.7200000000000E+00  5.9754871485665E-03 -2.8443924128267E-02
   274  2.7300000000000E+00  4.7455426866238E-03 -2.2574540899159E-02
   275  2.7400000000000E+00  3.6445002934815E-03 -1.7337692949158E-02
   276  2.7500000000000E+00  2.6802576892367E-03 -1.2760094075589E-02
   277  2.7600000000000E+00  1.8590924021748E-03 -8.8635645688902E-03
   278  2.7700000000000E+00  1.1860231940234E-03 -5.6668930677678E-03
   279  2.7800000000000E+00  6.6108535401705E-04 -3.1677008095191E-03
   280  2.7900000000000E+00  2.8955411767494E-04 -1.3923972257108E-03
   281  2.8000000000000E+00  7.9615634787668E-05 -3.8454202626462E-04
   282  2.8100000000000E+00 -3.8938521356590E-07  2.0490835955654E-06
   283  2.8200000000000E+00 -8.1259092649378E-06  3.9538917464314E-05
   284  2.83  0. -0.
   285  2.84  0. -0.
   286  2.85 -0.  0.
   287  2.86 -0.  0.
   288  2.87 -0.  0.
   289  2.88  0.  0.
   290  2.89  0.  0.
   291  2.90  0.  0.
   292  2.91  0.  0.
   293  2.92  0.  0.
   294  2.93  0.  0.
   295  2.94  0.  0.
   296  2.95  0.  0.
   297  2.96  0.  0.
   298  2.97  0.  0.
   299  2.98  0.  0.
   300  2.99  0.  0.
   301  3.00  0.  0.
   302  3.01  0.  0.
   303  3.02  0.  0.
   304  3.03  0.  0.
   305  3.04  0.  0.
   306  3.05  0.  0.
   307  3.06  0.  0.
   308  3.07  0.  0.
   309  3.08  0.  0.
   310  3.09  0.  0.
   311  3.10  0.  0.
   312  3.11  0.  0.
   313  3.12  0.  0.
   314  3.13  0.  0.
   315  3.14  0.  0.
   316  3.15  0.  0.
   317  3.16  0.  0.
   318  3.17  0.  0.
   319  3.18  0.  0.
   320  3.19  0.  0.
   321  3.20  0.  0.
   322  3.21  0.  0.
   323  3.22  0.  0.
   324  3.23  0.  0.
   325  3.24  0.  0.
   326  3.25  0.  0.
   327  3.26  0.  0.
   328  3.27  0.  0.
   329  3.28  0.  0.
   330  3.29  0.  0.
   331  3.30  0.  0.
   332  3.31  0.  0.
   333  3.32  0.  0.
   334  3.33  0.  0.
   335  3.34  0.  0.
   336  3.35  0.  0.
   337  3.36  0.  0.
   338  3.37  0.  0.
   339  3.38  0.  0.
   340  3.39  0.  0.
   341  3.40  0.  0.
   342  3.41  0.  0.
   343  3.42  0.  0.
   344  3.43  0.  0.
   345  3.44  0.  0.
   346  3.45  0.  0.
   347  3.46  0.  0.
   348  3.47  0.  0.
   349  3.48  0.  0.
   350  3.49  0.  0.
   351  3.50  0.  0.
   352  3.51  0.  0.
   353  3.52  0.  0.
   354  3.53  0.  0.
   355  3.54  0.  0.
   356  3.55  0.  0.
   357  3.56  0.  0.
   358  3.57  0.  0.
   359  3.58  0.  0.
   360  3.59  0.  0.
   361  3.60  0.  0.
   362  3.61  0.  0.
   363  3.62  0.  0.
   364  3.63  0.  0.
   365  3.64  0.  0.
   366  3.65  0.  0.
   367  3.66  0.  0.
   368  3.67  0.  0.
   369  3.68  0.  0.
   370  3.69  0.  0.
   371  3.70  0.  0.
   372  3.71  0.  0.
   373  3.72  0.  0.
   374  3.73  0.  0.
   375  3.74  0.  0.
   376  3.75  0.  0.
   377  3.76  0.  0.
   378  3.77  0.  0.
   379  3.78  0.  0.
   380  3.79  0.  0.
   381  3.80  0.  0.
   382  3.81  0.  0.
   383  3.82  0.  0.
   384  3.83  0.  0.
   385  3.84  0.  0.
   386  3.85  0.  0.
   387  3.86  0.  0.
   388  3.87  0.  0.
   389  3.88  0.  0.
   390  3.89  0.  0.
   391  3.90  0.  0.
   392  3.91  0.  0.
   393  3.92  0.  0.
   394  3.93  0.  0.
   395  3.94  0.  0.
   396  3.95  0.  0.
   397  3.96  0.  0.
   398  3.97  0.  0.
   399  3.98  0.  0.
   400  3.99  0.  0.
   401  4.00  0.  0.
   402  4.01  0.  0.
   403  4.02  0.  0.
   404  4.03  0.  0.
   405  4.04  0.  0.
   406  4.05  0.  0.
   407  4.06  0.  0.
   408  4.07  0.  0.
   409  4.08  0.  0.
   410  4.09  0.  0.
   411  4.10  0.  0.
   412  4.11  0.  0.
   413  4.12  0.  0.
   414  4.13  0.  0.
   415  4.14  0.  0.
   416  4.15  0.  0.
   417  4.16  0.  0.
   418  4.17  0.  0.
   419  4.18  0.  0.
   420  4.19  0.  0.
   421  4.20  0.  0.
   422  4.21  0.  0.
   423  4.22  0.  0.
   424  4.23  0.  0.
   425  4.24  0.  0.
   426  4.25  0.  0.
   427  4.26  0.  0.
   428  4.27  0.  0.
   429  4.28  0.  0.
   430  4.29  0.  0.
   431  4.30  0.  0.
   432  4.31  0.  0.
   433  4.32  0.  0.
   434  4.33  0.  0.
   435  4.34  0.  0.
   436  4.35  0.  0.
   437  4.36  0.  0.
   438  4.37  0.  0.
   439  4.38  0.  0.
   440  4.39  0.  0.
   441  4.40  0.  0.
   442  4.41  0.  0.
   443  4.42  0.  0.
   444  4.43  0.  0.
   445  4.44  0.  0.
   446  4.45  0.  0.
   447  4.46  0.  0.
   448  4.47  0.  0.
   449  4.48  0.  0.
   450  4.49  0.  0.
   451  4.50  0.  0.
   452  4.51  0.  0.
   453  4.52  0.  0.
   454  4.53  0.  0.
   455  4.54  0.  0.
   456  4.55  0.  0.
   457  4.56  0.  0.
   458  4.57  0.  0.
   459  4.58  0.  0.
   460  4.59  0.  0.
   461  4.60  0.  0.
   462  4.61  0.  0.
   463  4.62  0.  0.
   464  4.63  0.  0.
   465  4.64  0.  0.
   466  4.65  0.  0.
   467  4.66  0.  0.
   468  4.67  0.  0.
   469  4.68  0.  0.
   470  4.69  0.  0.
   471  4.70  0.  0.
   472  4.71  0.  0.
   473  4.72  0.  0.
   474  4.73  0.  0.
   475  4.74  0.  0.
   476  4.75  0.  0.
   477  4.76  0.  0.
   478  4.77  0.  0.
   479  4.78  0.  0.
   480  4.79  0.  0.
   481  4.80  0.  0.
   482  4.81  0.  0.
   483  4.82  0.  0.
   484  4.83  0.  0.
   485  4.84  0.  0.
   486  4.85  0.  0.
   487  4.86  0.  0.
   488  4.87  0.  0.
   489  4.88  0.  0.
   490  4.89  0.  0.
   491  4.90  0.  0.
   492  4.91  0.  0.
   493  4.92  0.  0.
   494  4.93  0.  0.
   495  4.94  0.  0.
   496  4.95  0.  0.
   497  4.96  0.  0.
   498  4.97  0.  0.
   499  4.98  0.  0.
   500  4.99  0.  0.
   501  5.00  0.  0.
   502  5.01  0.  0.
   503  5.02  0.  0.
   504  5.03  0.  0.
   505  5.04  0.  0.
   506  5.05  0.  0.
   507  5.06  0.  0.
   508  5.07  0.  0.
   509  5.08  0.  0.
   510  5.09  0.  0.
   511  5.10  0.  0.
   512  5.11  0.  0.
   513  5.12  0.  0.
   514  5.13  0.  0.
   515  5.14  0.  0.
   516  5.15  0.  0.
   517  5.16  0.  0.
   518  5.17  0.  0.
   519  5.18  0.  0.
   520  5.19  0.  0.
   521  5.20  0.  0.
   522  5.21  0.  0.
   523  5.22  0.  0.
   524  5.23  0.  0.
   525  5.24  0.  0.
   526  5.25  0.  0.
   527  5.26  0.  0.
   528  5.27  0.  0.
   529  5.28  0.  0.
   530  5.29  0.  0.
   531  5.30  0.  0.
   532  5.31  0.  0.
   533  5.32  0.  0.
   534  5.33  0.  0.
   535  5.34  0.  0.
   536  5.35  0.  0.
   537  5.36  0.  0.
   538  5.37  0.  0.
   539  5.38  0.  0.
   540  5.39  0.  0.
   541  5.40  0.  0.
   542  5.41  0.  0.
   543  5.42  0.  0.
   544  5.43  0.  0.
   545  5.44  0.  0.
   546  5.45  0.  0.
   547  5.46  0.  0.
   548  5.47  0.  0.
   549  5.48  0.  0.
   550  5.49  0.  0.
   551  5.50  0.  0.
   552  5.51  0.  0.
   553  5.52  0.  0.
   554  5.53  0.  0.
   555  5.54  0.  0.
   556  5.55  0.  0.
   557  5.56  0.  0.
   558  5.57  0.  0.
   559  5.58  0.  0.
   560  5.59  0.  0.
   561  5.60  0.  0.
   562  5.61  0.  0.
   563  5.62  0.  0.
   564  5.63  0.  0.
   565  5.64  0.  0.
   566  5.65  0.  0.
   567  5.66  0.  0.
   568  5.67  0.  0.
   569  5.68  0.  0.
   570  5.69  0.  0.
   571  5.70  0.  0.
   572  5.71  0.  0.
   573  5.72  0.  0.
   574  5.73  0.  0.
   575  5.74  0.  0.
   576  5.75  0.  0.
   577  5.76  0.  0.
   578  5.77  0.  0.
   579  5.78  0.  0.
   580  5.79  0.  0.
   581  5.80  0.  0.
   582  5.81  0.  0.
   583  5.82  0.  0.
   584  5.83  0.  0.
   585  5.84  0.  0.
   586  5.85  0.  0.
   587  5.86  0.  0.
   588  5.87  0.  0.
   589  5.88  0.  0.
   590  5.89  0.  0.
   591  5.90  0.  0.
   592  5.91  0.  0.
   593  5.92  0.  0.
   594  5.93  0.  0.
   595  5.94  0.  0.
   596  5.95  0.  0.
   597  5.96  0.  0.
   598  5.97  0.  0.
   599  5.98  0.  0.
   600  5.99  0.  0.
   1                         3.9565918913740E+00  4.4879065818481E-01
     1  0.0000000000000E+00 -4.8274106934088E-11  1.3048571815069E-10
     2  1.0000000000000E-02  1.8951156004092E-04  3.5124371288074E-05
     3  2.0000000000000E-02  7.5841267343825E-04  1.3918972890966E-04
     4  3.0000000000000E-02  1.7077988183541E-03  3.0828321532211E-04
     5  4.0000000000000E-02  3.0394830782357E-03  5.3591803661392E-04
     6  5.0000000000000E-02  4.7559771602115E-03  8.1308517585802E-04
     7  6.0000000000000E-02  6.8604649975692E-03  1.1283253139938E-03
     8  7.0000000000000E-02  9.3567691116950E-03  1.4678204840435E-03
     9  8.0000000000000E-02  1.2249309957127E-02  1.8155048539833E-03
    10  9.0000000000000E-02  1.5543058520193E-02  2.1531939069881E-03
    11  1.0000000000000E-01  1.9243482486926E-02  2.4607311655492E-03
    12  1.1000000000000E-01  2.3356486339082E-02  2.7161514892725E-03
    13  1.2000000000000E-01  2.7888345778168E-02  2.8958598652845E-03
    14  1.3000000000000E-01  3.2845636915768E-02  2.9748245062075E-03
    15  1.4000000000000E-01  3.8235160704305E-02  2.9267829740001E-03
    16  1.5000000000000E-01  4.4063863115126E-02  2.7244599592856E-03
    17  1.6000000000000E-01  5.0338751600461E-02  2.3397952657673E-03
    18  1.7000000000000E-01  5.7066808402104E-02  1.7441804782269E-03
    19  1.8000000000000E-01  6.4254901292399E-02  9.0870273124054E-04
    20  1.9000000000000E-01  7.1909692352284E-02 -1.9560605593904E-04
    21  2.0000000000000E-01  8.0037545406369E-02 -1.5975161540406E-03
    22  2.1000000000000E-01  8.8644432746516E-02 -3.3253449145046E-03
    23  2.2000000000000E-01  9.7735841782796E-02 -5.4067013027661E-03
    24  2.3000000000000E-01  1.0731668226412E-01 -7.8682318095997E-03
    25  2.4000000000000E-01  1.1739119471016E-01 -1.0735369474153E-02
    26  2.5000000000000E-01  1.2796286069159E-01 -1.4032087739328E-02
    27  2.6000000000000E-01  1.3903431558673E-01 -1.7780660836300E-02
    28  2.7000000000000E-01  1.5060726443012E-01 -2.2001432360171E-02
    29  2.8000000000000E-01  1.6268240145173E-01 -2.6712593653442E-02
    30  2.9000000000000E-01  1.7525933388509E-01 -3.1929973558124E-02
    31  3.0000000000000E-01  1.8833651059829E-01 -3.7666841031460E-02
    32  3.1000000000000E-01  2.0191115607407E-01 -4.3933722044616E-02
    33  3.2000000000000E-01  2.1597921023389E-01 -5.0738232098852E-02
    34  3.3000000000000E-01  2.3053527456646E-01 -5.8084925600014E-02
    35  3.4000000000000E-01  2.4557256498373E-01 -6.5975163230317E-02
    36  3.5000000000000E-01  2.6108287178687E-01 -7.4406998346919E-02
    37  3.6000000000000E-01  2.7705652708209E-01 -8.3375083320330E-02
    38  3.7000000000000E-01  2.9348237994087E-01 -9.2870596602936E-02
    39  3.8000000000000E-01  3.1034777955195E-01 -1.0288119118972E-01
    40  3.9000000000000E-01  3.2763856656346E-01 -1.1339096500027E-01
    41  4.0000000000000E-01  3.4533907276320E-01 -1.2438045357407E-01
    42  4.1000000000000E-01  3.6343212919360E-01 -1.3582664533137E-01
    43  4.2000000000000E-01  3.8189908274524E-01 -1.4770301950924E-01