Li    ONCVPSP-3.2.3.1  r_core=   1.40824   1.10935
3.0000      3.0000      170503    zatom,zion,pspd
8      11   1     4   400     0    pspcod,pspxc,lmax,lloc,mmax,r2well
3.99000000  0.00000000  0.00000000    rchrg fchrg qchrg
2     2     0     0     0    nproj
1     1           extension_switch
0                        -4.9515440588302E+00 -1.5447970278792E+00
1  0.0000000000000E+00 -6.2444638349035E-10  1.8556791658852E-09
2  1.0000000000000E-02  9.4750499223478E-02 -4.3885224364173E-02
3  2.0000000000000E-02  1.8919152370381E-01 -8.7391877935296E-02
4  3.0000000000000E-02  2.8301518730418E-01 -1.3014451979176E-01
5  4.0000000000000E-02  3.7591676780124E-01 -1.7177393371718E-01
6  5.0000000000000E-02  4.6759625575572E-01 -2.1192015344056E-01
7  6.0000000000000E-02  5.5775986413057E-01 -2.5023538468309E-01
8  7.0000000000000E-02  6.4612148631705E-01 -2.8638679182837E-01
9  8.0000000000000E-02  7.3240409085375E-01 -3.2005911888865E-01
10  9.0000000000000E-02  8.1634104188684E-01 -3.5095711670679E-01
11  1.0000000000000E-01  8.9767733531180E-01 -3.7880775097918E-01
12  1.1000000000000E-01  9.7617074154424E-01 -4.0336216866846E-01
13  1.2000000000000E-01  1.0515928469753E+00 -4.2439740365285E-01
14  1.3000000000000E-01  1.1237299873612E+00 -4.4171780598265E-01
15  1.4000000000000E-01  1.1923840676575E+00 -4.5515618283125E-01
16  1.5000000000000E-01  1.2573732641228E+00 -4.6457464308330E-01
17  1.6000000000000E-01  1.3185326058569E+00 -4.6986514143896E-01
18  1.7000000000000E-01  1.3757144343007E+00 -4.7094972187262E-01
19  1.8000000000000E-01  1.4287887405712E+00 -4.6778046420893E-01
20  1.9000000000000E-01  1.4776433818344E+00 -4.6033914140989E-01
21  2.0000000000000E-01  1.5221841791991E+00 -4.4863659884918E-01
22  2.1000000000000E-01  1.5623349008404E+00 -4.3271187032894E-01
23  2.2000000000000E-01  1.5980371352020E+00 -4.1263104882043E-01
24  2.3000000000000E-01  1.6292500601820E+00 -3.8848593283519E-01
25  2.4000000000000E-01  1.6559501151514E+00 -3.6039247191811E-01
26  2.5000000000000E-01  1.6781305834816E+00 -3.2848903695900E-01
27  2.6000000000000E-01  1.6958010939559E+00 -2.9293454281584E-01
28  2.7000000000000E-01  1.7089870500014E+00 -2.5390645210667E-01
29  2.8000000000000E-01  1.7177289960971E+00 -2.1159868993890E-01
30  2.9000000000000E-01  1.7220819309842E+00 -1.6621949979655E-01
31  3.0000000000000E-01  1.7221145774297E+00 -1.1798927079194E-01
32  3.1000000000000E-01  1.7179086182697E+00 -6.7138366013593E-02
33  3.2000000000000E-01  1.7095579082912E+00 -1.3904980778005E-02
34  3.3000000000000E-01  1.6971676712020E+00  4.1466941764118E-02
35  3.4000000000000E-01  1.6808536905015E+00  9.8729711979818E-02
36  3.5000000000000E-01  1.6607415025027E+00  1.5763378851733E-01
37  3.6000000000000E-01  1.6369655990850E+00  2.1792954541322E-01
38  3.7000000000000E-01  1.6096686469850E+00  2.7936889325260E-01
39  3.8000000000000E-01  1.5790007295840E+00  3.4170673911862E-01
40  3.9000000000000E-01  1.5451186162272E+00  4.0470227329486E-01
41  4.0000000000000E-01  1.5081850631404E+00  4.6812007405710E-01
42  4.1000000000000E-01  1.4683681490051E+00  5.3173102535440E-01
43  4.2000000000000E-01  1.4258406472359E+00  5.9531304567530E-01
44  4.3000000000000E-01  1.3807794359848E+00  6.5865162986591E-01
45  4.4000000000000E-01  1.3333649459034E+00  7.2154020905501E-01
46  4.5000000000000E-01  1.2837806447378E+00  7.8378033709091E-01
47  4.6000000000000E-01  1.2322125569257E+00  8.4518171495249E-01
48  4.7000000000000E-01  1.1788488155388E+00  9.0556206741104E-01
49  4.8000000000000E-01  1.1238792431639E+00  9.6474688874449E-01
50  4.9000000000000E-01  1.0674949576721E+00  1.0225690764979E+00
51  5.0000000000000E-01  1.0098879982878E+00  1.0788684741089E+00
52  5.1000000000000E-01  9.5125096695193E-01  1.1334913446418E+00
53  5.2000000000000E-01  8.9177667968232E-01  1.1862897988751E+00
54  5.3000000000000E-01  8.3165782247893E-01  1.2371212015503E+00
55  5.4000000000000E-01  7.7108660629457E-01  1.2858475796960E+00
56  5.5000000000000E-01  7.1025441570712E-01  1.3323350566046E+00
57  5.6000000000000E-01  6.4935144617403E-01  1.3764533342410E+00
58  5.7000000000000E-01  5.8856632512696E-01  1.4180752456390E+00
59  5.8000000000000E-01  5.2808571266310E-01  1.4570763971971E+00
60  5.9000000000000E-01  4.6809387820492E-01  1.4933349187485E+00
61  6.0000000000000E-01  4.0877225021707E-01  1.5267313368941E+00
62  6.1000000000000E-01  3.5029893688105E-01  1.5571485843742E+00
63  6.2000000000000E-01  2.9284821651168E-01  1.5844721552843E+00
64  6.3000000000000E-01  2.3658999745191E-01  1.6085904127255E+00
65  6.4000000000000E-01  1.8168924817050E-01  1.6293950521254E+00
66  6.5000000000000E-01  1.2830539930760E-01  1.6467817199753E+00
67  6.6000000000000E-01  7.6591720439957E-02  1.6606507841973E+00
68  6.7000000000000E-01  2.6694675348059E-02  1.6709082488411E+00
69  6.8000000000000E-01 -2.1246739446858E-02  1.6774668023526E+00
70  6.9000000000000E-01 -6.7101667175957E-02  1.6802469853394E+00
71  7.0000000000000E-01 -1.1074806778132E-01  1.6791784606292E+00
72  7.1000000000000E-01 -1.5207339199877E-01  1.6742013655476E+00
73  7.2000000000000E-01 -1.9097524454432E-01  1.6652677237509E+00
74  7.3000000000000E-01 -2.2736202782700E-01  1.6523428917326E+00
75  7.4000000000000E-01 -2.6115355718166E-01  1.6354070132885E+00
76  7.5000000000000E-01 -2.9228163832863E-01  1.6144564538230E+00
77  7.6000000000000E-01 -3.2069059763139E-01  1.5895051854500E+00
78  7.7000000000000E-01 -3.4633775574401E-01  1.5605860933871E+00
79  7.8000000000000E-01 -3.6919383542481E-01  1.5277521742049E+00
80  7.9000000000000E-01 -3.8924329463864E-01  1.4910775970606E+00
81  8.0000000000000E-01 -4.0648457657986E-01  1.4506586001300E+00
82  8.1000000000000E-01 -4.2093026891642E-01  1.4066141960404E+00
83  8.2000000000000E-01 -4.3260716537618E-01  1.3590866621862E+00
84  8.3000000000000E-01 -4.4155622376119E-01  1.3082417943500E+00
85  8.4000000000000E-01 -4.4783241557247E-01  1.2542689050314E+00
86  8.5000000000000E-01 -4.5150446364349E-01  1.1973805512489E+00
87  8.6000000000000E-01 -4.5265446549847E-01  1.1378119803012E+00
88  8.7000000000000E-01 -4.5137740155501E-01  1.0758202859789E+00
89  8.8000000000000E-01 -4.4778052875898E-01  1.0116832719651E+00
90  8.9000000000000E-01 -4.4198266175263E-01  9.4569802358039E-01
91  9.0000000000000E-01 -4.3411334521238E-01  8.7817919355370E-01
92  9.1000000000000E-01 -4.2431192252818E-01  8.0945701206311E-01
93  9.2000000000000E-01 -4.1272650750790E-01  7.3987503582076E-01
94  9.3000000000000E-01 -3.9951286725523E-01  6.6978765540360E-01
95  9.4000000000000E-01 -3.8483322576504E-01  5.9955738428336E-01
96  9.5000000000000E-01 -3.6885499908301E-01  5.2955195701890E-01
97  9.6000000000000E-01 -3.5174947406507E-01  4.6014126776916E-01
98  9.7000000000000E-01 -3.3369044383717E-01  3.9169418364408E-01
99  9.8000000000000E-01 -3.1485281393611E-01  3.2457527022837E-01
100  9.9000000000000E-01 -2.9541119388318E-01  2.5914146914600E-01
101  1.0000000000000E+00 -2.7553848947000E-01  1.9573876933979E-01
102  1.0100000000000E+00 -2.5540451140713E-01  1.3469891510546E-01
103  1.0200000000000E+00 -2.3517461614276E-01  7.6336194652827E-02
104  1.0300000000000E+00 -2.1500839460757E-01  2.0944353090537E-02
105  1.0400000000000E+00 -1.9505842436149E-01 -3.1206326820160E-02
106  1.0500000000000E+00 -1.7546910019273E-01 -7.9871733796076E-02
107  1.0600000000000E+00 -1.5637555747469E-01 -1.2483638661325E-01
108  1.0700000000000E+00 -1.3790270174175E-01 -1.6591560395869E-01
109  1.0800000000000E+00 -1.2016435709666E-01 -2.0295734947628E-01
110  1.0900000000000E+00 -1.0326254482210E-01 -2.3584371948561E-01
111  1.1000000000000E+00 -8.7286886354631E-02 -2.6449209984672E-01
112  1.1100000000000E+00 -7.2314220195537E-02 -2.8885568143593E-01
113  1.1200000000000E+00 -5.8408172763940E-02 -3.0892426181603E-01
114  1.1300000000000E+00 -4.5618541445128E-02 -3.2472582574712E-01
115  1.1400000000000E+00 -3.3980782433159E-02 -3.3632778765431E-01
116  1.1500000000000E+00 -2.3515996744521E-02 -3.4383655161430E-01
117  1.1600000000000E+00 -1.4231208214053E-02 -3.4739614694191E-01
118  1.1700000000000E+00 -6.1197440288654E-03 -3.4718663410312E-01
119  1.1800000000000E+00  8.3821853805493E-04 -3.4342204066475E-01
120  1.1900000000000E+00  6.6749599601084E-03 -3.3634789890219E-01
121  1.2000000000000E+00  1.1434389386008E-02 -3.2623840929065E-01
122  1.2100000000000E+00  1.5171088577581E-02 -3.1339325815623E-01
123  1.2200000000000E+00  1.7949240617216E-02 -2.9813412339983E-01
124  1.2300000000000E+00  1.9841456925296E-02 -2.8080090745294E-01
125  1.2400000000000E+00  2.0927517055468E-02 -2.6174773937567E-01
126  1.2500000000000E+00  2.1293036570054E-02 -2.4133879045946E-01
127  1.2600000000000E+00  2.1028079887423E-02 -2.1994395243500E-01
128  1.2700000000000E+00  2.0225734956316E-02 -1.9793442731576E-01
129  1.2800000000000E+00  1.8980667236600E-02 -1.7567827974496E-01
130  1.2900000000000E+00  1.7387670970989E-02 -1.5353600430433E-01
131  1.3000000000000E+00  1.5540234954210E-02 -1.3185615798730E-01
132  1.3100000000000E+00  1.3529140734833E-02 -1.1097111018101E-01
133  1.3200000000000E+00  1.1441109835920E-02 -9.1192958670129E-02
134  1.3300000000000E+00  9.3575157921381E-03 -7.2809657853225E-02
135  1.3400000000000E+00  7.3531773338224E-03 -5.6081406955060E-02
136  1.3500000000000E+00  5.4952456171883E-03 -4.1237336048974E-02
137  1.3600000000000E+00  3.8424105027823E-03 -2.8474101700073E-02
138  1.3700000000000E+00  2.4438022900010E-03 -1.7951702596312E-02
139  1.3800000000000E+00  1.3316862913021E-03 -9.7426964468515E-03
140  1.3900000000000E+00  5.4711588863749E-04 -4.0252874846405E-03
141  1.4000000000000E+00  1.1938513049013E-04 -9.3426486937521E-04
142  1.4100000000000E+00 -2.6462250933104E-05  1.3095967671515E-04
143  1.4200000000000E+00 -1.9761656263430E-05  1.2351352641380E-04
144  1.4300000000000E+00  7.9091246536877E-06 -5.0682280151417E-05
145  1.4400000000000E+00  3.1372231133450E-06 -2.0347340481520E-05
146  1.4500000000000E+00 -1.7175667450065E-06  1.0857598319761E-05
147  1.4600000000000E+00  4.3726930114483E-09 -1.3563704916893E-08
148  1.4700000000000E+00  4.1872011041208E-08 -1.2988325513657E-07
149  1.4800000000000E+00  0.0000000000000E+00  0.0000000000000E+00
150  1.4900000000000E+00  0.0000000000000E+00  0.0000000000000E+00
151  1.5000000000000E+00  0.0000000000000E+00  0.0000000000000E+00
152  1.5100000000000E+00  0.0000000000000E+00  0.0000000000000E+00
153  1.5200000000000E+00  0.0000000000000E+00  0.0000000000000E+00
154  1.5300000000000E+00  0.0000000000000E+00  0.0000000000000E+00
155  1.5400000000000E+00  0.0000000000000E+00  0.0000000000000E+00
156  1.5500000000000E+00  0.0000000000000E+00  0.0000000000000E+00
157  1.5600000000000E+00  0.0000000000000E+00  0.0000000000000E+00
158  1.5700000000000E+00  0.0000000000000E+00  0.0000000000000E+00
159  1.5800000000000E+00  0.0000000000000E+00  0.0000000000000E+00
160  1.5900000000000E+00  0.0000000000000E+00  0.0000000000000E+00
161  1.6000000000000E+00  0.0000000000000E+00  0.0000000000000E+00
162  1.6100000000000E+00  0.0000000000000E+00  0.0000000000000E+00
163  1.6200000000000E+00  0.0000000000000E+00  0.0000000000000E+00
164  1.6300000000000E+00  0.0000000000000E+00  0.0000000000000E+00
165  1.6400000000000E+00  0.0000000000000E+00  0.0000000000000E+00
166  1.6500000000000E+00  0.0000000000000E+00  0.0000000000000E+00
167  1.6600000000000E+00  0.0000000000000E+00  0.0000000000000E+00
168  1.6700000000000E+00  0.0000000000000E+00  0.0000000000000E+00
169  1.6800000000000E+00  0.0000000000000E+00  0.0000000000000E+00
170  1.6900000000000E+00  0.0000000000000E+00  0.0000000000000E+00
171  1.7000000000000E+00  0.0000000000000E+00  0.0000000000000E+00
172  1.7100000000000E+00  0.0000000000000E+00  0.0000000000000E+00
173  1.7200000000000E+00  0.0000000000000E+00  0.0000000000000E+00
174  1.7300000000000E+00  0.0000000000000E+00  0.0000000000000E+00
175  1.7400000000000E+00  0.0000000000000E+00  0.0000000000000E+00
176  1.7500000000000E+00  0.0000000000000E+00  0.0000000000000E+00
177  1.7600000000000E+00  0.0000000000000E+00  0.0000000000000E+00
178  1.7700000000000E+00  0.0000000000000E+00  0.0000000000000E+00
179  1.7800000000000E+00  0.0000000000000E+00  0.0000000000000E+00
180  1.7900000000000E+00  0.0000000000000E+00  0.0000000000000E+00
181  1.8000000000000E+00  0.0000000000000E+00  0.0000000000000E+00
182  1.8100000000000E+00  0.0000000000000E+00  0.0000000000000E+00
183  1.8200000000000E+00  0.0000000000000E+00  0.0000000000000E+00
184  1.8300000000000E+00  0.0000000000000E+00  0.0000000000000E+00
185  1.8400000000000E+00  0.0000000000000E+00  0.0000000000000E+00
186  1.8500000000000E+00  0.0000000000000E+00  0.0000000000000E+00
187  1.8600000000000E+00  0.0000000000000E+00  0.0000000000000E+00
188  1.8700000000000E+00  0.0000000000000E+00  0.0000000000000E+00
189  1.8800000000000E+00  0.0000000000000E+00  0.0000000000000E+00
190  1.8900000000000E+00  0.0000000000000E+00  0.0000000000000E+00
191  1.9000000000000E+00  0.0000000000000E+00  0.0000000000000E+00
192  1.9100000000000E+00  0.0000000000000E+00  0.0000000000000E+00
193  1.9200000000000E+00  0.0000000000000E+00  0.0000000000000E+00
194  1.9300000000000E+00  0.0000000000000E+00  0.0000000000000E+00
195  1.9400000000000E+00  0.0000000000000E+00  0.0000000000000E+00
196  1.9500000000000E+00  0.0000000000000E+00  0.0000000000000E+00
197  1.9600000000000E+00  0.0000000000000E+00  0.0000000000000E+00
198  1.9700000000000E+00  0.0000000000000E+00  0.0000000000000E+00
199  1.9800000000000E+00  0.0000000000000E+00  0.0000000000000E+00
200  1.9900000000000E+00  0.0000000000000E+00  0.0000000000000E+00
201  2.0000000000000E+00  0.0000000000000E+00  0.0000000000000E+00
202  2.0100000000000E+00  0.0000000000000E+00  0.0000000000000E+00
203  2.0200000000000E+00  0.0000000000000E+00  0.0000000000000E+00
204  2.0300000000000E+00  0.0000000000000E+00  0.0000000000000E+00
205  2.0400000000000E+00  0.0000000000000E+00  0.0000000000000E+00
206  2.0500000000000E+00  0.0000000000000E+00  0.0000000000000E+00
207  2.0600000000000E+00  0.0000000000000E+00  0.0000000000000E+00
208  2.0700000000000E+00  0.0000000000000E+00  0.0000000000000E+00
209  2.0800000000000E+00  0.0000000000000E+00  0.0000000000000E+00
210  2.0900000000000E+00  0.0000000000000E+00  0.0000000000000E+00
211  2.1000000000000E+00  0.0000000000000E+00  0.0000000000000E+00
212  2.1100000000000E+00  0.0000000000000E+00  0.0000000000000E+00
213  2.1200000000000E+00  0.0000000000000E+00  0.0000000000000E+00
214  2.1300000000000E+00  0.0000000000000E+00  0.0000000000000E+00
215  2.1400000000000E+00  0.0000000000000E+00  0.0000000000000E+00
216  2.1500000000000E+00  0.0000000000000E+00  0.0000000000000E+00
217  2.1600000000000E+00  0.0000000000000E+00  0.0000000000000E+00
218  2.1700000000000E+00  0.0000000000000E+00  0.0000000000000E+00
219  2.1800000000000E+00  0.0000000000000E+00  0.0000000000000E+00
220  2.1900000000000E+00  0.0000000000000E+00  0.0000000000000E+00
221  2.2000000000000E+00  0.0000000000000E+00  0.0000000000000E+00
222  2.2100000000000E+00  0.0000000000000E+00  0.0000000000000E+00
223  2.2200000000000E+00  0.0000000000000E+00  0.0000000000000E+00
224  2.2300000000000E+00  0.0000000000000E+00  0.0000000000000E+00
225  2.2400000000000E+00  0.0000000000000E+00  0.0000000000000E+00
226  2.2500000000000E+00  0.0000000000000E+00  0.0000000000000E+00
227  2.2600000000000E+00  0.0000000000000E+00  0.0000000000000E+00
228  2.2700000000000E+00  0.0000000000000E+00  0.0000000000000E+00
229  2.2800000000000E+00  0.0000000000000E+00  0.0000000000000E+00
230  2.2900000000000E+00  0.0000000000000E+00  0.0000000000000E+00
231  2.3000000000000E+00  0.0000000000000E+00  0.0000000000000E+00
232  2.3100000000000E+00  0.0000000000000E+00  0.0000000000000E+00
233  2.3200000000000E+00  0.0000000000000E+00  0.0000000000000E+00
234  2.3300000000000E+00  0.0000000000000E+00  0.0000000000000E+00
235  2.3400000000000E+00  0.0000000000000E+00  0.0000000000000E+00
236  2.3500000000000E+00  0.0000000000000E+00  0.0000000000000E+00
237  2.3600000000000E+00  0.0000000000000E+00  0.0000000000000E+00
238  2.3700000000000E+00  0.0000000000000E+00  0.0000000000000E+00
239  2.3800000000000E+00  0.0000000000000E+00  0.0000000000000E+00
240  2.3900000000000E+00  0.0000000000000E+00  0.0000000000000E+00
241  2.4000000000000E+00  0.0000000000000E+00  0.0000000000000E+00
242  2.4100000000000E+00  0.0000000000000E+00  0.0000000000000E+00
243  2.4200000000000E+00  0.0000000000000E+00  0.0000000000000E+00
244  2.4300000000000E+00  0.0000000000000E+00  0.0000000000000E+00
245  2.4400000000000E+00  0.0000000000000E+00  0.0000000000000E+00
246  2.4500000000000E+00  0.0000000000000E+00  0.0000000000000E+00
247  2.4600000000000E+00  0.0000000000000E+00  0.0000000000000E+00
248  2.4700000000000E+00  0.0000000000000E+00  0.0000000000000E+00
249  2.4800000000000E+00  0.0000000000000E+00  0.0000000000000E+00
250  2.4900000000000E+00  0.0000000000000E+00  0.0000000000000E+00
251  2.5000000000000E+00  0.0000000000000E+00  0.0000000000000E+00
252  2.5100000000000E+00  0.0000000000000E+00  0.0000000000000E+00
253  2.5200000000000E+00  0.0000000000000E+00  0.0000000000000E+00
254  2.5300000000000E+00  0.0000000000000E+00  0.0000000000000E+00
255  2.5400000000000E+00  0.0000000000000E+00  0.0000000000000E+00
256  2.5500000000000E+00  0.0000000000000E+00  0.0000000000000E+00
257  2.5600000000000E+00  0.0000000000000E+00  0.0000000000000E+00
258  2.5700000000000E+00  0.0000000000000E+00  0.0000000000000E+00
259  2.5800000000000E+00  0.0000000000000E+00  0.0000000000000E+00
260  2.5900000000000E+00  0.0000000000000E+00  0.0000000000000E+00
261  2.6000000000000E+00  0.0000000000000E+00  0.0000000000000E+00
262  2.6100000000000E+00  0.0000000000000E+00  0.0000000000000E+00
263  2.6200000000000E+00  0.0000000000000E+00  0.0000000000000E+00
264  2.6300000000000E+00  0.0000000000000E+00  0.0000000000000E+00
265  2.6400000000000E+00  0.0000000000000E+00  0.0000000000000E+00
266  2.6500000000000E+00  0.0000000000000E+00  0.0000000000000E+00
267  2.6600000000000E+00  0.0000000000000E+00  0.0000000000000E+00
268  2.6700000000000E+00  0.0000000000000E+00  0.0000000000000E+00
269  2.6800000000000E+00  0.0000000000000E+00  0.0000000000000E+00
270  2.6900000000000E+00  0.0000000000000E+00  0.0000000000000E+00
271  2.7000000000000E+00  0.0000000000000E+00  0.0000000000000E+00
272  2.7100000000000E+00  0.0000000000000E+00  0.0000000000000E+00
273  2.7200000000000E+00  0.0000000000000E+00  0.0000000000000E+00
274  2.7300000000000E+00  0.0000000000000E+00  0.0000000000000E+00
275  2.7400000000000E+00  0.0000000000000E+00  0.0000000000000E+00
276  2.7500000000000E+00  0.0000000000000E+00  0.0000000000000E+00
277  2.7600000000000E+00  0.0000000000000E+00  0.0000000000000E+00
278  2.7700000000000E+00  0.0000000000000E+00  0.0000000000000E+00
279  2.7800000000000E+00  0.0000000000000E+00  0.0000000000000E+00
280  2.7900000000000E+00  0.0000000000000E+00  0.0000000000000E+00
281  2.8000000000000E+00  0.0000000000000E+00  0.0000000000000E+00
282  2.8100000000000E+00  0.0000000000000E+00  0.0000000000000E+00
283  2.8200000000000E+00  0.0000000000000E+00  0.0000000000000E+00
284  2.8300000000000E+00  0.0000000000000E+00  0.0000000000000E+00
285  2.8400000000000E+00  0.0000000000000E+00  0.0000000000000E+00
286  2.8500000000000E+00  0.0000000000000E+00  0.0000000000000E+00
287  2.8600000000000E+00  0.0000000000000E+00  0.0000000000000E+00
288  2.8700000000000E+00  0.0000000000000E+00  0.0000000000000E+00
289  2.8800000000000E+00  0.0000000000000E+00  0.0000000000000E+00
290  2.8900000000000E+00  0.0000000000000E+00  0.0000000000000E+00
291  2.9000000000000E+00  0.0000000000000E+00  0.0000000000000E+00
292  2.9100000000000E+00  0.0000000000000E+00  0.0000000000000E+00
293  2.9200000000000E+00  0.0000000000000E+00  0.0000000000000E+00
294  2.9300000000000E+00  0.0000000000000E+00  0.0000000000000E+00
295  2.9400000000000E+00  0.0000000000000E+00  0.0000000000000E+00
296  2.9500000000000E+00  0.0000000000000E+00  0.0000000000000E+00
297  2.9600000000000E+00  0.0000000000000E+00  0.0000000000000E+00
298  2.9700000000000E+00  0.0000000000000E+00  0.0000000000000E+00
299  2.9800000000000E+00  0.0000000000000E+00  0.0000000000000E+00
300  2.9900000000000E+00  0.0000000000000E+00  0.0000000000000E+00
301  3.0000000000000E+00  0.0000000000000E+00  0.0000000000000E+00
302  3.0100000000000E+00  0.0000000000000E+00  0.0000000000000E+00
303  3.0200000000000E+00  0.0000000000000E+00  0.0000000000000E+00
304  3.0300000000000E+00  0.0000000000000E+00  0.0000000000000E+00
305  3.0400000000000E+00  0.0000000000000E+00  0.0000000000000E+00
306  3.0500000000000E+00  0.0000000000000E+00  0.0000000000000E+00
307  3.0600000000000E+00  0.0000000000000E+00  0.0000000000000E+00
308  3.0700000000000E+00  0.0000000000000E+00  0.0000000000000E+00
309  3.0800000000000E+00  0.0000000000000E+00  0.0000000000000E+00
310  3.0900000000000E+00  0.0000000000000E+00  0.0000000000000E+00
311  3.1000000000000E+00  0.0000000000000E+00  0.0000000000000E+00
312  3.1100000000000E+00  0.0000000000000E+00  0.0000000000000E+00
313  3.1200000000000E+00  0.0000000000000E+00  0.0000000000000E+00
314  3.1300000000000E+00  0.0000000000000E+00  0.0000000000000E+00
315  3.1400000000000E+00  0.0000000000000E+00  0.0000000000000E+00
316  3.1500000000000E+00  0.0000000000000E+00  0.0000000000000E+00
317  3.1600000000000E+00  0.0000000000000E+00  0.0000000000000E+00
318  3.1700000000000E+00  0.0000000000000E+00  0.0000000000000E+00
319  3.1800000000000E+00  0.0000000000000E+00  0.0000000000000E+00
320  3.1900000000000E+00  0.0000000000000E+00  0.0000000000000E+00
321  3.2000000000000E+00  0.0000000000000E+00  0.0000000000000E+00
322  3.2100000000000E+00  0.0000000000000E+00  0.0000000000000E+00
323  3.2200000000000E+00  0.0000000000000E+00  0.0000000000000E+00
324  3.2300000000000E+00  0.0000000000000E+00  0.0000000000000E+00
325  3.2400000000000E+00  0.0000000000000E+00  0.0000000000000E+00
326  3.2500000000000E+00  0.0000000000000E+00  0.0000000000000E+00
327  3.2600000000000E+00  0.0000000000000E+00  0.0000000000000E+00
328  3.2700000000000E+00  0.0000000000000E+00  0.0000000000000E+00
329  3.2800000000000E+00  0.0000000000000E+00  0.0000000000000E+00
330  3.2900000000000E+00  0.0000000000000E+00  0.0000000000000E+00
331  3.3000000000000E+00  0.0000000000000E+00  0.0000000000000E+00
332  3.3100000000000E+00  0.0000000000000E+00  0.0000000000000E+00
333  3.3200000000000E+00  0.0000000000000E+00  0.0000000000000E+00
334  3.3300000000000E+00  0.0000000000000E+00  0.0000000000000E+00
335  3.3400000000000E+00  0.0000000000000E+00  0.0000000000000E+00
336  3.3500000000000E+00  0.0000000000000E+00  0.0000000000000E+00
337  3.3600000000000E+00  0.0000000000000E+00  0.0000000000000E+00
338  3.3700000000000E+00  0.0000000000000E+00  0.0000000000000E+00
339  3.3800000000000E+00  0.0000000000000E+00  0.0000000000000E+00
340  3.3900000000000E+00  0.0000000000000E+00  0.0000000000000E+00
341  3.4000000000000E+00  0.0000000000000E+00  0.0000000000000E+00
342  3.4100000000000E+00  0.0000000000000E+00  0.0000000000000E+00
343  3.4200000000000E+00  0.0000000000000E+00  0.0000000000000E+00
344  3.4300000000000E+00  0.0000000000000E+00  0.0000000000000E+00
345  3.4400000000000E+00  0.0000000000000E+00  0.0000000000000E+00
346  3.4500000000000E+00  0.0000000000000E+00  0.0000000000000E+00
347  3.4600000000000E+00  0.0000000000000E+00  0.0000000000000E+00
348  3.4700000000000E+00  0.0000000000000E+00  0.0000000000000E+00
349  3.4800000000000E+00  0.0000000000000E+00  0.0000000000000E+00
350  3.4900000000000E+00  0.0000000000000E+00  0.0000000000000E+00
351  3.5000000000000E+00  0.0000000000000E+00  0.0000000000000E+00
352  3.5100000000000E+00  0.0000000000000E+00  0.0000000000000E+00
353  3.5200000000000E+00  0.0000000000000E+00  0.0000000000000E+00
354  3.5300000000000E+00  0.0000000000000E+00  0.0000000000000E+00
355  3.5400000000000E+00  0.0000000000000E+00  0.0000000000000E+00
356  3.5500000000000E+00  0.0000000000000E+00  0.0000000000000E+00
357  3.5600000000000E+00  0.0000000000000E+00  0.0000000000000E+00
358  3.5700000000000E+00  0.0000000000000E+00  0.0000000000000E+00
359  3.5800000000000E+00  0.0000000000000E+00  0.0000000000000E+00
360  3.5900000000000E+00  0.0000000000000E+00  0.0000000000000E+00
361  3.6000000000000E+00  0.0000000000000E+00  0.0000000000000E+00
362  3.6100000000000E+00  0.0000000000000E+00  0.0000000000000E+00
363  3.6200000000000E+00  0.0000000000000E+00  0.0000000000000E+00
364  3.6300000000000E+00  0.0000000000000E+00  0.0000000000000E+00
365  3.6400000000000E+00  0.0000000000000E+00  0.0000000000000E+00
366  3.6500000000000E+00  0.0000000000000E+00  0.0000000000000E+00
367  3.6600000000000E+00  0.0000000000000E+00  0.0000000000000E+00
368  3.6700000000000E+00  0.0000000000000E+00  0.0000000000000E+00
369  3.6800000000000E+00  0.0000000000000E+00  0.0000000000000E+00
370  3.6900000000000E+00  0.0000000000000E+00  0.0000000000000E+00
371  3.7000000000000E+00  0.0000000000000E+00  0.0000000000000E+00
372  3.7100000000000E+00  0.0000000000000E+00  0.0000000000000E+00
373  3.7200000000000E+00  0.0000000000000E+00  0.0000000000000E+00
374  3.7300000000000E+00  0.0000000000000E+00  0.0000000000000E+00
375  3.7400000000000E+00  0.0000000000000E+00  0.0000000000000E+00
376  3.7500000000000E+00  0.0000000000000E+00  0.0000000000000E+00
377  3.7600000000000E+00  0.0000000000000E+00  0.0000000000000E+00
378  3.7700000000000E+00  0.0000000000000E+00  0.0000000000000E+00
379  3.7800000000000E+00  0.0000000000000E+00  0.0000000000000E+00
380  3.7900000000000E+00  0.0000000000000E+00  0.0000000000000E+00
381  3.8000000000000E+00  0.0000000000000E+00  0.0000000000000E+00
382  3.8100000000000E+00  0.0000000000000E+00  0.0000000000000E+00
383  3.8200000000000E+00  0.0000000000000E+00  0.0000000000000E+00
384  3.8300000000000E+00  0.0000000000000E+00  0.0000000000000E+00
385  3.8400000000000E+00  0.0000000000000E+00  0.0000000000000E+00
386  3.8500000000000E+00  0.0000000000000E+00  0.0000000000000E+00
387  3.8600000000000E+00  0.0000000000000E+00  0.0000000000000E+00
388  3.8700000000000E+00  0.0000000000000E+00  0.0000000000000E+00
389  3.8800000000000E+00  0.0000000000000E+00  0.0000000000000E+00
390  3.8900000000000E+00  0.0000000000000E+00  0.0000000000000E+00
391  3.9000000000000E+00  0.0000000000000E+00  0.0000000000000E+00
392  3.9100000000000E+00  0.0000000000000E+00  0.0000000000000E+00
393  3.9200000000000E+00  0.0000000000000E+00  0.0000000000000E+00
394  3.9300000000000E+00  0.0000000000000E+00  0.0000000000000E+00
395  3.9400000000000E+00  0.0000000000000E+00  0.0000000000000E+00
396  3.9500000000000E+00  0.0000000000000E+00  0.0000000000000E+00
397  3.9600000000000E+00  0.0000000000000E+00  0.0000000000000E+00
398  3.9700000000000E+00  0.0000000000000E+00  0.0000000000000E+00
399  3.9800000000000E+00  0.0000000000000E+00  0.0000000000000E+00
400  3.9900000000000E+00  0.0000000000000E+00  0.0000000000000E+00
1                        -2.2506615654671E+00 -4.7468537603362E-01
1  0.0000000000000E+00  6.2128919536830E-08 -1.5896196528531E-07
2  1.0000000000000E-02  4.0126657855449E-03 -3.9036133693406E-03
3  2.0000000000000E-02  1.5991780694902E-02 -1.5498386342333E-02
4  3.0000000000000E-02  3.5762105909743E-02 -3.4439548232472E-02
5  4.0000000000000E-02  6.3036231704019E-02 -6.0163813765986E-02
6  5.0000000000000E-02  9.7421420696118E-02 -9.1906023790021E-02
7  6.0000000000000E-02  1.3842891418102E-01 -1.2872173705283E-01
8  7.0000000000000E-02  1.8548543696452E-01 -1.6951509313599E-01
9  8.0000000000000E-02  2.3794657399269E-01 -2.1307110765658E-01
10  9.0000000000000E-02  2.9511163949329E-01 -2.5809142692890E-01
11  1.0000000000000E-01  3.5623961786584E-01 -3.0323246440307E-01
12  1.1000000000000E-01  4.2056572639041E-01 -3.4714476854772E-01
13  1.2000000000000E-01  4.8731813382959E-01 -3.8851243362561E-01
14  1.3000000000000E-01  5.5573436664829E-01 -4.2609136222385E-01
15  1.4000000000000E-01  6.2507694594984E-01 -4.5874522159299E-01
16  1.5000000000000E-01  6.9464782299614E-01 -4.8547800390038E-01
17  1.6000000000000E-01  7.6380121863114E-01 -5.0546220147414E-01
18  1.7000000000000E-01  8.3195452096926E-01 -5.1806173907065E-01
19  1.8000000000000E-01  8.9859695491679E-01 -5.2284896232715E-01
20  1.9000000000000E-01  9.6329580473289E-01 -5.1961516024819E-01
21  2.0000000000000E-01  1.0257000449318E+00 -5.0837429457014E-01
22  2.1000000000000E-01  1.0855413132065E+00 -4.8935981439220E-01
23  2.2000000000000E-01  1.1426322394121E+00 -4.6301464446585E-01
24  2.3000000000000E-01  1.1968622246279E+00 -4.2997464376557E-01
25  2.4000000000000E-01  1.2481908415449E+00 -3.9104603119626E-01
26  2.5000000000000E-01  1.2966390996388E+00 -3.4717746154163E-01
27  2.6000000000000E-01  1.3422788836105E+00 -2.9942760139861E-01
28  2.7000000000000E-01  1.3852209294993E+00 -2.4892919682674E-01
29  2.8000000000000E-01  1.4256017479855E+00 -1.9685073740697E-01
30  2.9000000000000E-01  1.4635699373501E+00 -1.4435690184131E-01
31  3.0000000000000E-01  1.4992723483138E+00 -9.2569015546589E-02
32  3.1000000000000E-01  1.5328405689114E+00 -4.2526759358668E-02
33  3.2000000000000E-01  1.5643781894129E+00  4.8476600310421E-03
34  3.3000000000000E-01  1.5939492852759E+00  4.8781732318347E-02
35  3.4000000000000E-01  1.6215685207649E+00  8.8680212814392E-02
36  3.5000000000000E-01  1.6471932281809E+00  1.2414712500380E-01
37  3.6000000000000E-01  1.6707177589454E+00  1.5500144327801E-01
38  3.7000000000000E-01  1.6919703347335E+00  1.8128588711286E-01
39  3.8000000000000E-01  1.7107125514014E+00  2.0326846104897E-01
40  3.9000000000000E-01  1.7266416077679E+00  2.2143659073420E-01
41  4.0000000000000E-01  1.7393952477257E+00  2.3648392772657E-01
42  4.1000000000000E-01  1.7485593201060E+00  2.4929011826814E-01
43  4.2000000000000E-01  1.7536777786531E+00  2.6089404724820E-01