Be    ONCVPSP-3.2.3.1  r_core=   1.35684   1.10780
4.0000      4.0000      170503    zatom,zion,pspd
8      11   1     4   400     0    pspcod,pspxc,lmax,lloc,mmax,r2well
3.99000000  0.00000000  0.00000000    rchrg fchrg qchrg
2     2     0     0     0    nproj
1     1           extension_switch
0                        -6.9637914963385E+00 -2.5666561353172E+00
1  0.0000000000000E+00 -8.4809448352985E-10  2.7093924881427E-09
2  1.0000000000000E-02  9.9362217778321E-02 -4.8333149050050E-02
3  2.0000000000000E-02  1.9838228149479E-01 -9.6226589301390E-02
4  3.0000000000000E-02  2.9671987444797E-01 -1.4324450262000E-01
5  4.0000000000000E-02  3.9403833817492E-01 -1.8895880501868E-01
6  5.0000000000000E-02  4.9000646058523E-01 -2.3295289647938E-01
7  6.0000000000000E-02  5.8430021552687E-01 -2.7482527203794E-01
8  7.0000000000000E-02  6.7660443860802E-01 -3.1419295112422E-01
9  8.0000000000000E-02  7.6661442494679E-01 -3.5069468486029E-01
10  9.0000000000000E-02  8.5403743555600E-01 -3.8399390432351E-01
11  1.0000000000000E-01  9.3859410027530E-01 -4.1378137662773E-01
12  1.1000000000000E-01  1.0200197065206E+00 -4.3977754000293E-01
13  1.2000000000000E-01  1.0980653646083E+00 -4.6173449379106E-01
14  1.3000000000000E-01  1.1724990420065E+00 -4.7943762434905E-01
15  1.4000000000000E-01  1.2431064605431E+00 -4.9270685317650E-01
16  1.5000000000000E-01  1.3096918523354E+00 -5.0139749908056E-01
17  1.6000000000000E-01  1.3720785719653E+00 -5.0540075176627E-01
18  1.7000000000000E-01  1.4301095641936E+00 -5.0464375980660E-01
19  1.8000000000000E-01  1.4836476882440E+00 -4.9908934141535E-01
20  1.9000000000000E-01  1.5325759013748E+00 -4.8873533172872E-01
21  2.0000000000000E-01  1.5767973060685E+00 -4.7361358531458E-01
22  2.1000000000000E-01  1.6162350666747E+00 -4.5378865729170E-01
23  2.2000000000000E-01  1.6508322027271E+00 -4.2935619068077E-01
24  2.3000000000000E-01  1.6805512673919E+00 -4.0044104135729E-01
25  2.4000000000000E-01  1.7053739205780E+00 -3.6719517517531E-01
26  2.5000000000000E-01  1.7253004071391E+00 -3.2979537442946E-01
27  2.6000000000000E-01  1.7403489512981E+00 -2.8844079278208E-01
28  2.7000000000000E-01  1.7505550789337E+00 -2.4335039907291E-01
29  2.8000000000000E-01  1.7559708796671E+00 -1.9476035103217E-01
30  2.9000000000000E-01  1.7566642207823E+00 -1.4292133982895E-01
31  3.0000000000000E-01  1.7527179248971E+00 -8.8095945609260E-02
32  3.1000000000000E-01  1.7442289229960E+00 -3.0556042729866E-02
33  3.2000000000000E-01  1.7313073939239E+00  2.9419708696899E-02
34  3.3000000000000E-01  1.7140759007616E+00  9.1548251026766E-02
35  3.4000000000000E-01  1.6926685336492E+00  1.5554436640337E-01
36  3.5000000000000E-01  1.6672300676312E+00  2.2112273624515E-01
37  3.6000000000000E-01  1.6379151429686E+00  2.8799980014034E-01
38  3.7000000000000E-01  1.6048874741401E+00  3.5589539591263E-01
39  3.8000000000000E-01  1.5683190924431E+00  4.2453416741213E-01
40  3.9000000000000E-01  1.5283896257462E+00  4.9364673156213E-01
41  4.0000000000000E-01  1.4852856175571E+00  5.6297060126141E-01
42  4.1000000000000E-01  1.4391998861792E+00  6.3225086581436E-01
43  4.2000000000000E-01  1.3903309233748E+00  7.0124063554312E-01
44  4.3000000000000E-01  1.3388823306450E+00  7.6970126203760E-01
45  4.4000000000000E-01  1.2850622900125E+00  8.3740235003288E-01
46  4.5000000000000E-01  1.2290830650790E+00  9.0412158108440E-01
47  4.6000000000000E-01  1.1711605271316E+00  9.6964437296364E-01
48  4.7000000000000E-01  1.1115137002384E+00  1.0337634019488E+00
49  4.8000000000000E-01  1.0503643185919E+00  1.0962780178757E+00
50  4.9000000000000E-01  9.8793638886743E-01  1.1569935838907E+00
51  5.0000000000000E-01  9.2445575005877E-01  1.2157207742712E+00
52  5.1000000000000E-01  8.6014962315310E-01  1.2722748644153E+00
53  5.2000000000000E-01  7.9524614310480E-01  1.3264750471415E+00
54  5.3000000000000E-01  7.2997386587574E-01  1.3781438087652E+00
55  5.4000000000000E-01  6.6456124381265E-01  1.4271063970566E+00
56  5.5000000000000E-01  5.9923606333093E-01  1.4731904111305E+00
57  5.6000000000000E-01  5.3422483975212E-01  1.5162255406357E+00
58  5.7000000000000E-01  4.6975216518651E-01  1.5560434783186E+00
59  5.8000000000000E-01  4.0604000654477E-01  1.5924780262046E+00
60  5.9000000000000E-01  3.4330695207807E-01  1.6253654113408E+00
61  6.0000000000000E-01  2.8176740626609E-01  1.6545448223359E+00
62  6.1000000000000E-01  2.2163073436419E-01  1.6798591729205E+00
63  6.2000000000000E-01  1.6310035945768E-01  1.7011560935247E+00
64  6.3000000000000E-01  1.0637281642968E-01  1.7182891464903E+00
65  6.4000000000000E-01  5.1636768779493E-02  1.7311192551880E+00
66  6.5000000000000E-01 -9.2800427243496E-04  1.7395163319747E+00
67  6.6000000000000E-01 -5.1151641546726E-02  1.7433610848226E+00
68  6.7000000000000E-01 -9.8875244385812E-02  1.7425469776223E+00
69  6.8000000000000E-01 -1.4395192052993E-01  1.7369823146795E+00
70  6.9000000000000E-01 -1.8624781506527E-01  1.7265924159503E+00
71  7.0000000000000E-01 -2.2564311530401E-01  1.7113218461170E+00
72  7.1000000000000E-01 -2.6203301584977E-01  1.6911366577953E+00
73  7.2000000000000E-01 -2.9532862972373E-01  1.6660266070412E+00
74  7.3000000000000E-01 -3.2545783129175E-01  1.6360072979547E+00
75  7.4000000000000E-01 -3.5236601685030E-01  1.6011222125886E+00
76  7.5000000000000E-01 -3.7601676910553E-01  1.5614445825912E+00
77  7.6000000000000E-01 -3.9639241241310E-01  1.5170790600558E+00
78  7.7000000000000E-01 -4.1349444654336E-01  1.4681631469239E+00
79  7.8000000000000E-01 -4.2734384787551E-01  1.4148683449571E+00
80  7.9000000000000E-01 -4.3798122830298E-01  1.3574009917438E+00
81  8.0000000000000E-01 -4.4546684372998E-01  1.2960027523750E+00
82  8.1000000000000E-01 -4.4988044583432E-01  1.2309507412707E+00
83  8.2000000000000E-01 -4.5132097273977E-01  1.1625572540697E+00
84  8.3000000000000E-01 -4.4990607635406E-01  1.0911690954465E+00
85  8.4000000000000E-01 -4.4577148635313E-01  1.0171664950789E+00
86  8.5000000000000E-01 -4.3907021309492E-01  9.4096161067208E-01
87  8.6000000000000E-01 -4.2997159409027E-01  8.6299662381800E-01
88  8.7000000000000E-01 -4.1866019100630E-01  7.8374144144303E-01
89  8.8000000000000E-01 -4.0533454648994E-01  7.0369102252805E-01
90  8.9000000000000E-01 -3.9020581233850E-01  6.2336235657353E-01
91  9.0000000000000E-01 -3.7349626267059E-01  5.4329112679664E-01
92  9.1000000000000E-01 -3.5543770772840E-01  4.6402809717823E-01
93  9.2000000000000E-01 -3.3626982573570E-01  3.8613526811137E-01
94  9.3000000000000E-01 -3.1623843378509E-01  3.1018185822476E-01
95  9.4000000000000E-01 -2.9559370935652E-01  2.3674013092473E-01
96  9.5000000000000E-01 -2.7458838120561E-01  1.6638112025588E-01
97  9.6000000000000E-01 -2.5347600886961E-01  9.9670679630963E-02
98  9.7000000000000E-01 -2.3250838993767E-01  3.7162059288096E-02
99  9.8000000000000E-01 -2.1192911252259E-01 -2.0626446102499E-02
100  9.9000000000000E-01 -1.9196309829307E-01 -7.3248064920670E-02
101  1.0000000000000E+00 -1.7280898605540E-01 -1.2035143789753E-01
102  1.0100000000000E+00 -1.5463209459950E-01 -1.6170145151354E-01
103  1.0200000000000E+00 -1.3755764100695E-01 -1.9719872793760E-01
104  1.0300000000000E+00 -1.2166538067997E-01 -2.2689358255808E-01
105  1.0400000000000E+00 -1.0698659078154E-01 -2.5099150632203E-01
106  1.0500000000000E+00 -9.3504387615171E-02 -2.6984708238567E-01
107  1.0600000000000E+00 -8.1158183246616E-02 -2.8394403567487E-01
108  1.0700000000000E+00 -6.9852581058570E-02 -2.9386094732734E-01
109  1.0800000000000E+00 -5.9470287268030E-02 -3.0022464677301E-01
110  1.0900000000000E+00 -4.9887739861926E-02 -3.0365615240050E-01
111  1.1000000000000E+00 -4.0991445671428E-02 -3.0471624643537E-01
112  1.1100000000000E+00 -3.2692400565191E-02 -3.0385949870540E-01
113  1.1200000000000E+00 -2.4936170190291E-02 -3.0140446772104E-01
114  1.1300000000000E+00 -1.7706994053950E-02 -2.9752489055246E-01
115  1.1400000000000E+00 -1.1025318420051E-02 -2.9226302688899E-01
116  1.1500000000000E+00 -4.9395141828304E-03 -2.8556174533833E-01
117  1.1600000000000E+00  4.8614173339577E-04 -2.7730784147604E-01
118  1.1700000000000E+00  5.1849734392090E-03 -2.6737881557630E-01
119  1.1800000000000E+00  9.1004925544570E-03 -2.5568507642243E-01
120  1.1900000000000E+00  1.2196196855676E-02 -2.4220170731143E-01
121  1.2000000000000E+00  1.4461815993936E-02 -2.2698768849635E-01
122  1.2100000000000E+00  1.5915798864066E-02 -2.1019229810639E-01
123  1.2200000000000E+00  1.6604445378177E-02 -1.9205047184061E-01
124  1.2300000000000E+00  1.6598688714408E-02 -1.7287065497392E-01
125  1.2400000000000E+00  1.5989266609316E-02 -1.5301773319317E-01
126  1.2500000000000E+00  1.4881213592615E-02 -1.3289418167098E-01
127  1.2600000000000E+00  1.3388278483601E-02 -1.1292135655317E-01
128  1.2700000000000E+00  1.1627658404159E-02 -9.3522164193509E-02
129  1.2800000000000E+00  9.7153793614242E-03 -7.5106107540010E-02
130  1.2900000000000E+00  7.7623713790613E-03 -5.8056776211136E-02
131  1.3000000000000E+00  5.8712643843578E-03 -4.2721807209127E-02
132  1.3100000000000E+00  4.1340583971978E-03 -2.9406347861178E-02
133  1.3200000000000E+00  2.6303345960263E-03 -1.8368092989520E-02
134  1.3300000000000E+00  1.4172325755038E-03 -9.7553676120389E-03
135  1.3400000000000E+00  5.6263889591237E-04 -3.8325859614137E-03
136  1.3500000000000E+00  1.1298419974646E-04 -7.6743291004944E-04
137  1.3600000000000E+00 -2.6597541072012E-05  1.7298937539360E-04
138  1.3700000000000E+00 -1.2133092863673E-05  7.9745653179121E-05
139  1.3800000000000E+00  8.9491191401468E-06 -5.9349288895432E-05
140  1.3900000000000E+00 -1.4942524104534E-07  9.9979406887495E-07
141  1.4000000000000E+00 -1.4716954331232E-06  9.8585694092069E-06
142  1.4100000000000E+00  1.3777918652515E-08 -8.0318842905724E-08
143  1.4200000000000E+00  1.0307553459876E-08 -6.0088231609278E-08
144  1.4300000000000E+00  0.0000000000000E+00  0.0000000000000E+00
145  1.4400000000000E+00  0.0000000000000E+00  0.0000000000000E+00
146  1.4500000000000E+00  0.0000000000000E+00  0.0000000000000E+00
147  1.4600000000000E+00  0.0000000000000E+00  0.0000000000000E+00
148  1.4700000000000E+00  0.0000000000000E+00  0.0000000000000E+00
149  1.4800000000000E+00  0.0000000000000E+00  0.0000000000000E+00
150  1.4900000000000E+00  0.0000000000000E+00  0.0000000000000E+00
151  1.5000000000000E+00  0.0000000000000E+00  0.0000000000000E+00
152  1.5100000000000E+00  0.0000000000000E+00  0.0000000000000E+00
153  1.5200000000000E+00  0.0000000000000E+00  0.0000000000000E+00
154  1.5300000000000E+00  0.0000000000000E+00  0.0000000000000E+00
155  1.5400000000000E+00  0.0000000000000E+00  0.0000000000000E+00
156  1.5500000000000E+00  0.0000000000000E+00  0.0000000000000E+00
157  1.5600000000000E+00  0.0000000000000E+00  0.0000000000000E+00
158  1.5700000000000E+00  0.0000000000000E+00  0.0000000000000E+00
159  1.5800000000000E+00  0.0000000000000E+00  0.0000000000000E+00
160  1.5900000000000E+00  0.0000000000000E+00  0.0000000000000E+00
161  1.6000000000000E+00  0.0000000000000E+00  0.0000000000000E+00
162  1.6100000000000E+00  0.0000000000000E+00  0.0000000000000E+00
163  1.6200000000000E+00  0.0000000000000E+00  0.0000000000000E+00
164  1.6300000000000E+00  0.0000000000000E+00  0.0000000000000E+00
165  1.6400000000000E+00  0.0000000000000E+00  0.0000000000000E+00
166  1.6500000000000E+00  0.0000000000000E+00  0.0000000000000E+00
167  1.6600000000000E+00  0.0000000000000E+00  0.0000000000000E+00
168  1.6700000000000E+00  0.0000000000000E+00  0.0000000000000E+00
169  1.6800000000000E+00  0.0000000000000E+00  0.0000000000000E+00
170  1.6900000000000E+00  0.0000000000000E+00  0.0000000000000E+00
171  1.7000000000000E+00  0.0000000000000E+00  0.0000000000000E+00
172  1.7100000000000E+00  0.0000000000000E+00  0.0000000000000E+00
173  1.7200000000000E+00  0.0000000000000E+00  0.0000000000000E+00
174  1.7300000000000E+00  0.0000000000000E+00  0.0000000000000E+00
175  1.7400000000000E+00  0.0000000000000E+00  0.0000000000000E+00
176  1.7500000000000E+00  0.0000000000000E+00  0.0000000000000E+00
177  1.7600000000000E+00  0.0000000000000E+00  0.0000000000000E+00
178  1.7700000000000E+00  0.0000000000000E+00  0.0000000000000E+00
179  1.7800000000000E+00  0.0000000000000E+00  0.0000000000000E+00
180  1.7900000000000E+00  0.0000000000000E+00  0.0000000000000E+00
181  1.8000000000000E+00  0.0000000000000E+00  0.0000000000000E+00
182  1.8100000000000E+00  0.0000000000000E+00  0.0000000000000E+00
183  1.8200000000000E+00  0.0000000000000E+00  0.0000000000000E+00
184  1.8300000000000E+00  0.0000000000000E+00  0.0000000000000E+00
185  1.8400000000000E+00  0.0000000000000E+00  0.0000000000000E+00
186  1.8500000000000E+00  0.0000000000000E+00  0.0000000000000E+00
187  1.8600000000000E+00  0.0000000000000E+00  0.0000000000000E+00
188  1.8700000000000E+00  0.0000000000000E+00  0.0000000000000E+00
189  1.8800000000000E+00  0.0000000000000E+00  0.0000000000000E+00
190  1.8900000000000E+00  0.0000000000000E+00  0.0000000000000E+00
191  1.9000000000000E+00  0.0000000000000E+00  0.0000000000000E+00
192  1.9100000000000E+00  0.0000000000000E+00  0.0000000000000E+00
193  1.9200000000000E+00  0.0000000000000E+00  0.0000000000000E+00
194  1.9300000000000E+00  0.0000000000000E+00  0.0000000000000E+00
195  1.9400000000000E+00  0.0000000000000E+00  0.0000000000000E+00
196  1.9500000000000E+00  0.0000000000000E+00  0.0000000000000E+00
197  1.9600000000000E+00  0.0000000000000E+00  0.0000000000000E+00
198  1.9700000000000E+00  0.0000000000000E+00  0.0000000000000E+00
199  1.9800000000000E+00  0.0000000000000E+00  0.0000000000000E+00
200  1.9900000000000E+00  0.0000000000000E+00  0.0000000000000E+00
201  2.0000000000000E+00  0.0000000000000E+00  0.0000000000000E+00
202  2.0100000000000E+00  0.0000000000000E+00  0.0000000000000E+00
203  2.0200000000000E+00  0.0000000000000E+00  0.0000000000000E+00
204  2.0300000000000E+00  0.0000000000000E+00  0.0000000000000E+00
205  2.0400000000000E+00  0.0000000000000E+00  0.0000000000000E+00
206  2.0500000000000E+00  0.0000000000000E+00  0.0000000000000E+00
207  2.0600000000000E+00  0.0000000000000E+00  0.0000000000000E+00
208  2.0700000000000E+00  0.0000000000000E+00  0.0000000000000E+00
209  2.0800000000000E+00  0.0000000000000E+00  0.0000000000000E+00
210  2.0900000000000E+00  0.0000000000000E+00  0.0000000000000E+00
211  2.1000000000000E+00  0.0000000000000E+00  0.0000000000000E+00
212  2.1100000000000E+00  0.0000000000000E+00  0.0000000000000E+00
213  2.1200000000000E+00  0.0000000000000E+00  0.0000000000000E+00
214  2.1300000000000E+00  0.0000000000000E+00  0.0000000000000E+00
215  2.1400000000000E+00  0.0000000000000E+00  0.0000000000000E+00
216  2.1500000000000E+00  0.0000000000000E+00  0.0000000000000E+00
217  2.1600000000000E+00  0.0000000000000E+00  0.0000000000000E+00
218  2.1700000000000E+00  0.0000000000000E+00  0.0000000000000E+00
219  2.1800000000000E+00  0.0000000000000E+00  0.0000000000000E+00
220  2.1900000000000E+00  0.0000000000000E+00  0.0000000000000E+00
221  2.2000000000000E+00  0.0000000000000E+00  0.0000000000000E+00
222  2.2100000000000E+00  0.0000000000000E+00  0.0000000000000E+00
223  2.2200000000000E+00  0.0000000000000E+00  0.0000000000000E+00
224  2.2300000000000E+00  0.0000000000000E+00  0.0000000000000E+00
225  2.2400000000000E+00  0.0000000000000E+00  0.0000000000000E+00
226  2.2500000000000E+00  0.0000000000000E+00  0.0000000000000E+00
227  2.2600000000000E+00  0.0000000000000E+00  0.0000000000000E+00
228  2.2700000000000E+00  0.0000000000000E+00  0.0000000000000E+00
229  2.2800000000000E+00  0.0000000000000E+00  0.0000000000000E+00
230  2.2900000000000E+00  0.0000000000000E+00  0.0000000000000E+00
231  2.3000000000000E+00  0.0000000000000E+00  0.0000000000000E+00
232  2.3100000000000E+00  0.0000000000000E+00  0.0000000000000E+00
233  2.3200000000000E+00  0.0000000000000E+00  0.0000000000000E+00
234  2.3300000000000E+00  0.0000000000000E+00  0.0000000000000E+00
235  2.3400000000000E+00  0.0000000000000E+00  0.0000000000000E+00
236  2.3500000000000E+00  0.0000000000000E+00  0.0000000000000E+00
237  2.3600000000000E+00  0.0000000000000E+00  0.0000000000000E+00
238  2.3700000000000E+00  0.0000000000000E+00  0.0000000000000E+00
239  2.3800000000000E+00  0.0000000000000E+00  0.0000000000000E+00
240  2.3900000000000E+00  0.0000000000000E+00  0.0000000000000E+00
241  2.4000000000000E+00  0.0000000000000E+00  0.0000000000000E+00
242  2.4100000000000E+00  0.0000000000000E+00  0.0000000000000E+00
243  2.4200000000000E+00  0.0000000000000E+00  0.0000000000000E+00
244  2.4300000000000E+00  0.0000000000000E+00  0.0000000000000E+00
245  2.4400000000000E+00  0.0000000000000E+00  0.0000000000000E+00
246  2.4500000000000E+00  0.0000000000000E+00  0.0000000000000E+00
247  2.4600000000000E+00  0.0000000000000E+00  0.0000000000000E+00
248  2.4700000000000E+00  0.0000000000000E+00  0.0000000000000E+00
249  2.4800000000000E+00  0.0000000000000E+00  0.0000000000000E+00
250  2.4900000000000E+00  0.0000000000000E+00  0.0000000000000E+00
251  2.5000000000000E+00  0.0000000000000E+00  0.0000000000000E+00
252  2.5100000000000E+00  0.0000000000000E+00  0.0000000000000E+00
253  2.5200000000000E+00  0.0000000000000E+00  0.0000000000000E+00
254  2.5300000000000E+00  0.0000000000000E+00  0.0000000000000E+00
255  2.5400000000000E+00  0.0000000000000E+00  0.0000000000000E+00
256  2.5500000000000E+00  0.0000000000000E+00  0.0000000000000E+00
257  2.5600000000000E+00  0.0000000000000E+00  0.0000000000000E+00
258  2.5700000000000E+00  0.0000000000000E+00  0.0000000000000E+00
259  2.5800000000000E+00  0.0000000000000E+00  0.0000000000000E+00
260  2.5900000000000E+00  0.0000000000000E+00  0.0000000000000E+00
261  2.6000000000000E+00  0.0000000000000E+00  0.0000000000000E+00
262  2.6100000000000E+00  0.0000000000000E+00  0.0000000000000E+00
263  2.6200000000000E+00  0.0000000000000E+00  0.0000000000000E+00
264  2.6300000000000E+00  0.0000000000000E+00  0.0000000000000E+00
265  2.6400000000000E+00  0.0000000000000E+00  0.0000000000000E+00
266  2.6500000000000E+00  0.0000000000000E+00  0.0000000000000E+00
267  2.6600000000000E+00  0.0000000000000E+00  0.0000000000000E+00
268  2.6700000000000E+00  0.0000000000000E+00  0.0000000000000E+00
269  2.6800000000000E+00  0.0000000000000E+00  0.0000000000000E+00
270  2.6900000000000E+00  0.0000000000000E+00  0.0000000000000E+00
271  2.7000000000000E+00  0.0000000000000E+00  0.0000000000000E+00
272  2.7100000000000E+00  0.0000000000000E+00  0.0000000000000E+00
273  2.7200000000000E+00  0.0000000000000E+00  0.0000000000000E+00
274  2.7300000000000E+00  0.0000000000000E+00  0.0000000000000E+00
275  2.7400000000000E+00  0.0000000000000E+00  0.0000000000000E+00
276  2.7500000000000E+00  0.0000000000000E+00  0.0000000000000E+00
277  2.7600000000000E+00  0.0000000000000E+00  0.0000000000000E+00
278  2.7700000000000E+00  0.0000000000000E+00  0.0000000000000E+00
279  2.7800000000000E+00  0.0000000000000E+00  0.0000000000000E+00
280  2.7900000000000E+00  0.0000000000000E+00  0.0000000000000E+00
281  2.8000000000000E+00  0.0000000000000E+00  0.0000000000000E+00
282  2.8100000000000E+00  0.0000000000000E+00  0.0000000000000E+00
283  2.8200000000000E+00  0.0000000000000E+00  0.0000000000000E+00
284  2.8300000000000E+00  0.0000000000000E+00  0.0000000000000E+00
285  2.8400000000000E+00  0.0000000000000E+00  0.0000000000000E+00
286  2.8500000000000E+00  0.0000000000000E+00  0.0000000000000E+00
287  2.8600000000000E+00  0.0000000000000E+00  0.0000000000000E+00
288  2.8700000000000E+00  0.0000000000000E+00  0.0000000000000E+00
289  2.8800000000000E+00  0.0000000000000E+00  0.0000000000000E+00
290  2.8900000000000E+00  0.0000000000000E+00  0.0000000000000E+00
291  2.9000000000000E+00  0.0000000000000E+00  0.0000000000000E+00
292  2.9100000000000E+00  0.0000000000000E+00  0.0000000000000E+00
293  2.9200000000000E+00  0.0000000000000E+00  0.0000000000000E+00
294  2.9300000000000E+00  0.0000000000000E+00  0.0000000000000E+00
295  2.9400000000000E+00  0.0000000000000E+00  0.0000000000000E+00
296  2.9500000000000E+00  0.0000000000000E+00  0.0000000000000E+00
297  2.9600000000000E+00  0.0000000000000E+00  0.0000000000000E+00
298  2.9700000000000E+00  0.0000000000000E+00  0.0000000000000E+00
299  2.9800000000000E+00  0.0000000000000E+00  0.0000000000000E+00
300  2.9900000000000E+00  0.0000000000000E+00  0.0000000000000E+00
301  3.0000000000000E+00  0.0000000000000E+00  0.0000000000000E+00
302  3.0100000000000E+00  0.0000000000000E+00  0.0000000000000E+00
303  3.0200000000000E+00  0.0000000000000E+00  0.0000000000000E+00
304  3.0300000000000E+00  0.0000000000000E+00  0.0000000000000E+00
305  3.0400000000000E+00  0.0000000000000E+00  0.0000000000000E+00
306  3.0500000000000E+00  0.0000000000000E+00  0.0000000000000E+00
307  3.0600000000000E+00  0.0000000000000E+00  0.0000000000000E+00
308  3.0700000000000E+00  0.0000000000000E+00  0.0000000000000E+00
309  3.0800000000000E+00  0.0000000000000E+00  0.0000000000000E+00
310  3.0900000000000E+00  0.0000000000000E+00  0.0000000000000E+00
311  3.1000000000000E+00  0.0000000000000E+00  0.0000000000000E+00
312  3.1100000000000E+00  0.0000000000000E+00  0.0000000000000E+00
313  3.1200000000000E+00  0.0000000000000E+00  0.0000000000000E+00
314  3.1300000000000E+00  0.0000000000000E+00  0.0000000000000E+00
315  3.1400000000000E+00  0.0000000000000E+00  0.0000000000000E+00
316  3.1500000000000E+00  0.0000000000000E+00  0.0000000000000E+00
317  3.1600000000000E+00  0.0000000000000E+00  0.0000000000000E+00
318  3.1700000000000E+00  0.0000000000000E+00  0.0000000000000E+00
319  3.1800000000000E+00  0.0000000000000E+00  0.0000000000000E+00
320  3.1900000000000E+00  0.0000000000000E+00  0.0000000000000E+00
321  3.2000000000000E+00  0.0000000000000E+00  0.0000000000000E+00
322  3.2100000000000E+00  0.0000000000000E+00  0.0000000000000E+00
323  3.2200000000000E+00  0.0000000000000E+00  0.0000000000000E+00
324  3.2300000000000E+00  0.0000000000000E+00  0.0000000000000E+00
325  3.2400000000000E+00  0.0000000000000E+00  0.0000000000000E+00
326  3.2500000000000E+00  0.0000000000000E+00  0.0000000000000E+00
327  3.2600000000000E+00  0.0000000000000E+00  0.0000000000000E+00
328  3.2700000000000E+00  0.0000000000000E+00  0.0000000000000E+00
329  3.2800000000000E+00  0.0000000000000E+00  0.0000000000000E+00
330  3.2900000000000E+00  0.0000000000000E+00  0.0000000000000E+00
331  3.3000000000000E+00  0.0000000000000E+00  0.0000000000000E+00
332  3.3100000000000E+00  0.0000000000000E+00  0.0000000000000E+00
333  3.3200000000000E+00  0.0000000000000E+00  0.0000000000000E+00
334  3.3300000000000E+00  0.0000000000000E+00  0.0000000000000E+00
335  3.3400000000000E+00  0.0000000000000E+00  0.0000000000000E+00
336  3.3500000000000E+00  0.0000000000000E+00  0.0000000000000E+00
337  3.3600000000000E+00  0.0000000000000E+00  0.0000000000000E+00
338  3.3700000000000E+00  0.0000000000000E+00  0.0000000000000E+00
339  3.3800000000000E+00  0.0000000000000E+00  0.0000000000000E+00
340  3.3900000000000E+00  0.0000000000000E+00  0.0000000000000E+00
341  3.4000000000000E+00  0.0000000000000E+00  0.0000000000000E+00
342  3.4100000000000E+00  0.0000000000000E+00  0.0000000000000E+00
343  3.4200000000000E+00  0.0000000000000E+00  0.0000000000000E+00
344  3.4300000000000E+00  0.0000000000000E+00  0.0000000000000E+00
345  3.4400000000000E+00  0.0000000000000E+00  0.0000000000000E+00
346  3.4500000000000E+00  0.0000000000000E+00  0.0000000000000E+00
347  3.4600000000000E+00  0.0000000000000E+00  0.0000000000000E+00
348  3.4700000000000E+00  0.0000000000000E+00  0.0000000000000E+00
349  3.4800000000000E+00  0.0000000000000E+00  0.0000000000000E+00
350  3.4900000000000E+00  0.0000000000000E+00  0.0000000000000E+00
351  3.5000000000000E+00  0.0000000000000E+00  0.0000000000000E+00
352  3.5100000000000E+00  0.0000000000000E+00  0.0000000000000E+00
353  3.5200000000000E+00  0.0000000000000E+00  0.0000000000000E+00
354  3.5300000000000E+00  0.0000000000000E+00  0.0000000000000E+00
355  3.5400000000000E+00  0.0000000000000E+00  0.0000000000000E+00
356  3.5500000000000E+00  0.0000000000000E+00  0.0000000000000E+00
357  3.5600000000000E+00  0.0000000000000E+00  0.0000000000000E+00
358  3.5700000000000E+00  0.0000000000000E+00  0.0000000000000E+00
359  3.5800000000000E+00  0.0000000000000E+00  0.0000000000000E+00
360  3.5900000000000E+00  0.0000000000000E+00  0.0000000000000E+00
361  3.6000000000000E+00  0.0000000000000E+00  0.0000000000000E+00
362  3.6100000000000E+00  0.0000000000000E+00  0.0000000000000E+00
363  3.6200000000000E+00  0.0000000000000E+00  0.0000000000000E+00
364  3.6300000000000E+00  0.0000000000000E+00  0.0000000000000E+00
365  3.6400000000000E+00  0.0000000000000E+00  0.0000000000000E+00
366  3.6500000000000E+00  0.0000000000000E+00  0.0000000000000E+00
367  3.6600000000000E+00  0.0000000000000E+00  0.0000000000000E+00
368  3.6700000000000E+00  0.0000000000000E+00  0.0000000000000E+00
369  3.6800000000000E+00  0.0000000000000E+00  0.0000000000000E+00
370  3.6900000000000E+00  0.0000000000000E+00  0.0000000000000E+00
371  3.7000000000000E+00  0.0000000000000E+00  0.0000000000000E+00
372  3.7100000000000E+00  0.0000000000000E+00  0.0000000000000E+00
373  3.7200000000000E+00  0.0000000000000E+00  0.0000000000000E+00
374  3.7300000000000E+00  0.0000000000000E+00  0.0000000000000E+00
375  3.7400000000000E+00  0.0000000000000E+00  0.0000000000000E+00
376  3.7500000000000E+00  0.0000000000000E+00  0.0000000000000E+00
377  3.7600000000000E+00  0.0000000000000E+00  0.0000000000000E+00
378  3.7700000000000E+00  0.0000000000000E+00  0.0000000000000E+00
379  3.7800000000000E+00  0.0000000000000E+00  0.0000000000000E+00
380  3.7900000000000E+00  0.0000000000000E+00  0.0000000000000E+00
381  3.8000000000000E+00  0.0000000000000E+00  0.0000000000000E+00
382  3.8100000000000E+00  0.0000000000000E+00  0.0000000000000E+00
383  3.8200000000000E+00  0.0000000000000E+00  0.0000000000000E+00
384  3.8300000000000E+00  0.0000000000000E+00  0.0000000000000E+00
385  3.8400000000000E+00  0.0000000000000E+00  0.0000000000000E+00
386  3.8500000000000E+00  0.0000000000000E+00  0.0000000000000E+00
387  3.8600000000000E+00  0.0000000000000E+00  0.0000000000000E+00
388  3.8700000000000E+00  0.0000000000000E+00  0.0000000000000E+00
389  3.8800000000000E+00  0.0000000000000E+00  0.0000000000000E+00
390  3.8900000000000E+00  0.0000000000000E+00  0.0000000000000E+00
391  3.9000000000000E+00  0.0000000000000E+00  0.0000000000000E+00
392  3.9100000000000E+00  0.0000000000000E+00  0.0000000000000E+00
393  3.9200000000000E+00  0.0000000000000E+00  0.0000000000000E+00
394  3.9300000000000E+00  0.0000000000000E+00  0.0000000000000E+00
395  3.9400000000000E+00  0.0000000000000E+00  0.0000000000000E+00
396  3.9500000000000E+00  0.0000000000000E+00  0.0000000000000E+00
397  3.9600000000000E+00  0.0000000000000E+00  0.0000000000000E+00
398  3.9700000000000E+00  0.0000000000000E+00  0.0000000000000E+00
399  3.9800000000000E+00  0.0000000000000E+00  0.0000000000000E+00
400  3.9900000000000E+00  0.0000000000000E+00  0.0000000000000E+00
1                        -2.5974161189173E+00 -5.7381845430775E-01
1  0.0000000000000E+00  2.4852716967727E-08 -5.8923506407460E-08
2  1.0000000000000E-02  3.2561143772842E-03 -2.1811139905456E-03
3  2.0000000000000E-02  1.2990919268397E-02 -8.6726851444080E-03
4  3.0000000000000E-02  2.9104415350034E-02 -1.9320732894713E-02
5  4.0000000000000E-02  5.1431972571098E-02 -3.3873024613943E-02
6  5.0000000000000E-02  7.9747328376682E-02 -5.1985546289098E-02
7  6.0000000000000E-02  1.1376667678760E-01 -7.3231301806576E-02
8  7.0000000000000E-02  1.5315374354152E-01 -9.7111190259470E-02
9  8.0000000000000E-02  1.9752571764911E-01 -1.2306665176646E-01
10  9.0000000000000E-02  2.4645988848042E-01 -1.5049372236043E-01
11  1.0000000000000E-01  2.9950082046753E-01 -1.7875809902733E-01
12  1.1000000000000E-01  3.5616788516038E-01 -2.0721078810268E-01
13  1.2000000000000E-01  4.1596296304205E-01 -2.3520389477885E-01
14  1.3000000000000E-01  4.7837812540030E-01 -2.6210610890441E-01
15  1.4000000000000E-01  5.4290310971180E-01 -2.8731745264548E-01
16  1.5000000000000E-01  6.0903241032905E-01 -3.1028287863927E-01
17  1.6000000000000E-01  6.7627181952613E-01 -3.3050434234395E-01
18  1.7000000000000E-01  7.4414427177198E-01 -3.4755101836110E-01
19  1.8000000000000E-01  8.1219486595214E-01 -3.6106738625144E-01
20  1.9000000000000E-01  8.7999496552387E-01 -3.7077897516154E-01
21  2.0000000000000E-01  9.4714530454572E-01 -3.7649562658332E-01
22  2.1000000000000E-01  1.0132780573689E+00 -3.7811220873138E-01
23  2.2000000000000E-01  1.0780578606672E+00 -3.7560679219813E-01
24  2.3000000000000E-01  1.1411818075271E+00 -3.6903637249058E-01
25  2.4000000000000E-01  1.2023784636323E+00 -3.5853029855133E-01
26  2.5000000000000E-01  1.2614059842990E+00 -3.4428163525421E-01
27  2.6000000000000E-01  1.3180494374067E+00 -3.2653675010173E-01
28  2.7000000000000E-01  1.3721174603929E+00 -3.0558346810486E-01
29  2.8000000000000E-01  1.4234383987514E+00 -2.8173818246870E-01
30  2.9000000000000E-01  1.4718560883472E+00 -2.5533234094041E-01
31  3.0000000000000E-01  1.5172254538968E+00 -2.2669874749184E-01
32  3.1000000000000E-01  1.5594081008668E+00 -1.9615812578342E-01
33  3.2000000000000E-01  1.5982680776600E+00 -1.6400638432518E-01
34  3.3000000000000E-01  1.6336679792916E+00 -1.3050300354358E-01
35  3.4000000000000E-01  1.6654655529457E+00 -9.5860932592083E-02
36  3.5000000000000E-01  1.6935109501547E+00 -6.0238339589810E-02
37  3.6000000000000E-01  1.7176447502782E+00 -2.3732504262186E-02
38  3.7000000000000E-01  1.7376968560465E+00  1.3623921760720E-02
39  3.8000000000000E-01  1.7534863348396E+00  5.1864132661600E-02
40  3.9000000000000E-01  1.7648222498665E+00  9.1085785937610E-02
41  4.0000000000000E-01  1.7715054943154E+00  1.3144702053656E-01
42  4.1000000000000E-01  1.7733316097597E+00  1.7315995625633E-01
43  4.2000000000000E-01  1.7700945385190E+00  2.1648183318460E-01