C     ONCVPSP-3.2.3.1  r_core=   1.20440   1.26326
6.0000      4.0000      170503    zatom,zion,pspd
8      11   1     4   600     0    pspcod,pspxc,lmax,lloc,mmax,r2well
5.99000000  4.00000000  0.00000000    rchrg fchrg qchrg
2     2     0     0     0    nproj
1     1           extension_switch
0                         6.4815481573149E+00  3.8550364487412E-01
1  0.0000000000000E+00 -1.1200833593961E-09  6.4312884184847E-09
2  1.0000000000000E-02  7.5046259163796E-02 -2.0296643971996E-02
3  2.0000000000000E-02  1.4986447909687E-01 -4.0166829868339E-02
4  3.0000000000000E-02  2.2422833822213E-01 -5.9191343295079E-02
5  4.0000000000000E-02  2.9791492916908E-01 -7.6965343652414E-02
6  5.0000000000000E-02  3.7070641341508E-01 -9.3105268774348E-02
7  6.0000000000000E-02  4.4239161378013E-01 -1.0725540550020E-01
8  7.0000000000000E-02  5.1276752539384E-01 -1.1909402248678E-01
9  8.0000000000000E-02  5.8164072687356E-01 -1.2833896800143E-01
10  9.0000000000000E-02  6.4882867482351E-01 -1.3475264330447E-01
11  1.0000000000000E-01  7.1416086636758E-01 -1.3814627142433E-01
12  1.1000000000000E-01  7.7747985624117E-01 -1.3838339152076E-01
13  1.2000000000000E-01  8.3864211696530E-01 -1.3538252047415E-01
14  1.3000000000000E-01  8.9751873278064E-01 -1.2911893567165E-01
15  1.4000000000000E-01  9.5399592030214E-01 -1.1962554600855E-01
16  1.5000000000000E-01  1.0079753712328E+00 -1.0699283170274E-01
17  1.6000000000000E-01  1.0593744149169E+00 -9.1367847437014E-02
18  1.7000000000000E-01  1.1081260009836E+00 -7.2952297402769E-02
19  1.8000000000000E-01  1.1541785047976E+00 -5.1999704816997E-02
20  1.9000000000000E-01  1.1974953608577E+00 -2.8811712223479E-02
21  2.0000000000000E-01  1.2380545316412E+00 -3.7335621708784E-03
22  2.1000000000000E-01  1.2758478216332E+00  2.2851179506039E-02
23  2.2000000000000E-01  1.3108800483926E+00  5.0526583774543E-02
24  2.3000000000000E-01  1.3431680844475E+00  7.8850917036889E-02
25  2.4000000000000E-01  1.3727397855582E+00  1.0736370384931E-01
26  2.5000000000000E-01  1.3996328224138E+00  1.3559319094203E-01
27  2.6000000000000E-01  1.4238934341148E+00  1.6306410286081E-01
28  2.7000000000000E-01  1.4455751228185E+00  1.8930557419665E-01
29  2.8000000000000E-01  1.4647373096756E+00  2.1385913964056E-01
30  2.9000000000000E-01  1.4814439726494E+00  2.3628666106035E-01
31  3.0000000000000E-01  1.4957622869803E+00  2.5617807048343E-01
32  3.1000000000000E-01  1.5077612889330E+00  2.7315880930358E-01
33  3.2000000000000E-01  1.5175105830378E+00  2.8689684719864E-01
34  3.3000000000000E-01  1.5250791123287E+00  2.9710916912128E-01
35  3.4000000000000E-01  1.5305340100800E+00  3.0356762524743E-01
36  3.5000000000000E-01  1.5339395502827E+00  3.0610404685839E-01
37  3.6000000000000E-01  1.5353562125820E+00  3.0461454069176E-01
38  3.7000000000000E-01  1.5348398756492E+00  2.9906288519694E-01
39  3.8000000000000E-01  1.5324411510037E+00  2.8948296423476E-01
40  3.9000000000000E-01  1.5282048671626E+00  2.7598018690343E-01
41  4.0000000000000E-01  1.5221697117039E+00  2.5873185618015E-01
42  4.1000000000000E-01  1.5143680364194E+00  2.3798646375099E-01
43  4.2000000000000E-01  1.5048258282350E+00  2.1406190355790E-01
44  4.3000000000000E-01  1.4935628460270E+00  1.8734261201611E-01
45  4.4000000000000E-01  1.4805929208981E+00  1.5827565833067E-01
46  4.5000000000000E-01  1.4659244149323E+00  1.2736582365511E-01
47  4.6000000000000E-01  1.4495608309599E+00  9.5169722768604E-02
48  4.7000000000000E-01  1.4315015634687E+00  6.2289036292097E-02
49  4.8000000000000E-01  1.4117427785304E+00  2.9362935011134E-02
50  4.9000000000000E-01  1.3902784085029E+00 -2.9402095717496E-03
51  5.0000000000000E-01  1.3671012453548E+00 -3.3931722955126E-02
52  5.1000000000000E-01  1.3422041147605E+00 -6.2912018094343E-02
53  5.2000000000000E-01  1.3155811116684E+00 -8.9180354527724E-02
54  5.3000000000000E-01  1.2872288768604E+00 -1.1204483520422E-01
55  5.4000000000000E-01  1.2571478931299E+00 -1.3083250488416E-01
56  5.5000000000000E-01  1.2253437791144E+00 -1.4489941065269E-01
57  5.6000000000000E-01  1.1918285585416E+00 -1.5364048365524E-01
58  5.7000000000000E-01  1.1566218826930E+00 -1.5649910165925E-01
59  5.8000000000000E-01  1.1197521842544E+00 -1.5297619449522E-01
60  5.9000000000000E-01  1.0812577414089E+00 -1.4263875880024E-01
61  6.0000000000000E-01  1.0411876320325E+00 -1.2512765475646E-01
62  6.1000000000000E-01  9.9960255915171E-01 -1.0016456560473E-01
63  6.2000000000000E-01  9.5657553041642E-01 -6.7558010513005E-02
64  6.3000000000000E-01  9.1219237620243E-01 -2.7208312848421E-02
65  6.4000000000000E-01  8.6655209305401E-01  2.0888561269296E-02
66  6.5000000000000E-01  8.1976700150629E-01  7.6638364985433E-02
67  6.6000000000000E-01  7.7196270983395E-01  1.3984718883227E-01
68  6.7000000000000E-01  7.2327787792451E-01  2.1022137429050E-01
69  6.8000000000000E-01  6.7386377826973E-01  2.8736874505743E-01
70  6.9000000000000E-01  6.2388365392028E-01  3.7080116088291E-01
71  7.0000000000000E-01  5.7351187615442E-01  4.5993838109361E-01
72  7.1000000000000E-01  5.2293290751218E-01  5.5411320721026E-01
73  7.2000000000000E-01  4.7234007872159E-01  6.5257785648794E-01
74  7.3000000000000E-01  4.2193419082321E-01  7.5451150120258E-01
75  7.4000000000000E-01  3.7192195647283E-01  8.5902889212284E-01
76  7.5000000000000E-01  3.2251429691676E-01  9.6518996916555E-01
77  7.6000000000000E-01  2.7392451344942E-01  1.0720103479787E+00
78  7.7000000000000E-01  2.2636635426851E-01  1.1784725581814E+00
79  7.8000000000000E-01  1.8005199947201E-01  1.2835378976293E+00
80  7.9000000000000E-01  1.3518998849701E-01  1.3861587573313E+00
81  8.0000000000000E-01  9.1983115542585E-02  1.4852912637753E+00
82  8.1000000000000E-01  5.0626319431712E-02  1.5799080795105E+00
83  8.2000000000000E-01  1.1304594934681E-02  1.6690111989845E+00
84  8.3000000000000E-01 -2.5809047213110E-02  1.7516445749157E+00
85  8.4000000000000E-01 -6.0555544518615E-02  1.8269064109269E+00
86  8.5000000000000E-01 -9.2791644600857E-02  1.8939609587934E+00
87  8.6000000000000E-01 -1.2239163903832E-01  1.9520496634428E+00
88  8.7000000000000E-01 -1.4924894474064E-01  2.0005015057389E+00
89  8.8000000000000E-01 -1.7327750996207E-01  2.0387424020119E+00
90  8.9000000000000E-01 -1.9441302396568E-01  2.0663035301455E+00
91  9.0000000000000E-01 -2.1261391153855E-01  2.0828284646868E+00
92  9.1000000000000E-01 -2.2786209602027E-01  2.0880790177221E+00
93  9.2000000000000E-01 -2.4016351721120E-01  2.0819396980046E+00
94  9.3000000000000E-01 -2.4954839343753E-01  2.0644207178085E+00
95  9.4000000000000E-01 -2.5607122013050E-01  2.0356594950104E+00
96  9.5000000000000E-01 -2.5981050048745E-01  1.9959206167181E+00
97  9.6000000000000E-01 -2.6086820707922E-01  1.9455942501338E+00
98  9.7000000000000E-01 -2.5936897660880E-01  1.8851930059862E+00
99  9.8000000000000E-01 -2.5545904340421E-01  1.8153472797750E+00
100  9.9000000000000E-01 -2.4930492042342E-01  1.7367991149163E+00
101  1.0000000000000E+00 -2.4109183990400E-01  1.6503946517077E+00
102  1.0100000000000E+00 -2.3102196876048E-01  1.5570752436109E+00
103  1.0200000000000E+00 -2.1931241678015E-01  1.4578673398269E+00
104  1.0300000000000E+00 -2.0619305834745E-01  1.3538712490566E+00
105  1.0400000000000E+00 -1.9190419090675E-01  1.2462489141090E+00
106  1.0500000000000E+00 -1.7669405544243E-01  1.1362108393749E+00
107  1.0600000000000E+00 -1.6081624619648E-01  1.0250023248246E+00
108  1.0700000000000E+00 -1.4452703831764E-01  9.1388916908527E-01
109  1.0800000000000E+00 -1.2808266326461E-01  8.0414301102678E-01
110  1.0900000000000E+00 -1.1173656255919E-01  6.9702648410191E-01
111  1.1000000000000E+00 -9.5736650849705E-02  5.9377836007059E-01
112  1.1100000000000E+00 -8.0322619289131E-02  4.9559885929050E-01
113  1.1200000000000E+00 -6.5723309758566E-02  4.0363530225017E-01
114  1.1300000000000E+00 -5.2154189643667E-02  3.1896827246866E-01
115  1.1400000000000E+00 -3.9814955669888E-02  2.4259845411248E-01
116  1.1500000000000E+00 -2.8887293975250E-02  1.7543430015419E-01
117  1.1600000000000E+00 -1.9532821351614E-02  1.1828067403075E-01
118  1.1700000000000E+00 -1.1895859144336E-02  7.1856389135055E-02
119  1.1800000000000E+00 -6.0580152647417E-03  3.6522006996809E-02
120  1.1900000000000E+00 -2.1852399205293E-03  1.3164670495360E-02
121  1.2000000000000E+00 -3.8373768867712E-04  2.3332082758300E-03
122  1.2100000000000E+00  5.4457491174078E-05 -3.0794019548294E-04
123  1.2200000000000E+00 -7.1394887818297E-06  4.1762620438275E-05
124  1.2300000000000E+00 -1.5017084661405E-05  8.8327099431907E-05
125  1.2400000000000E+00  3.9338708360420E-06 -2.2986236657519E-05
126  1.2500000000000E+00  9.1913224831885E-08 -5.8443053004359E-07
127  1.2600000000000E+00  1.3565001094601E-07 -8.6253102252257E-07
128  1.2700000000000E+00  0.0000000000000E+00  0.0000000000000E+00
129  1.2800000000000E+00  0.0000000000000E+00  0.0000000000000E+00
130  1.2900000000000E+00  0.0000000000000E+00  0.0000000000000E+00
131  1.3000000000000E+00  0.0000000000000E+00  0.0000000000000E+00
132  1.3100000000000E+00  0.0000000000000E+00  0.0000000000000E+00
133  1.3200000000000E+00  0.0000000000000E+00  0.0000000000000E+00
134  1.3300000000000E+00  0.0000000000000E+00  0.0000000000000E+00
135  1.3400000000000E+00  0.0000000000000E+00  0.0000000000000E+00
136  1.3500000000000E+00  0.0000000000000E+00  0.0000000000000E+00
137  1.3600000000000E+00  0.0000000000000E+00  0.0000000000000E+00
138  1.3700000000000E+00  0.0000000000000E+00  0.0000000000000E+00
139  1.3800000000000E+00  0.0000000000000E+00  0.0000000000000E+00
140  1.3900000000000E+00  0.0000000000000E+00  0.0000000000000E+00
141  1.4000000000000E+00  0.0000000000000E+00  0.0000000000000E+00
142  1.4100000000000E+00  0.0000000000000E+00  0.0000000000000E+00
143  1.4200000000000E+00  0.0000000000000E+00  0.0000000000000E+00
144  1.4300000000000E+00  0.0000000000000E+00  0.0000000000000E+00
145  1.4400000000000E+00  0.0000000000000E+00  0.0000000000000E+00
146  1.4500000000000E+00  0.0000000000000E+00  0.0000000000000E+00
147  1.4600000000000E+00  0.0000000000000E+00  0.0000000000000E+00
148  1.4700000000000E+00  0.0000000000000E+00  0.0000000000000E+00
149  1.4800000000000E+00  0.0000000000000E+00  0.0000000000000E+00
150  1.4900000000000E+00  0.0000000000000E+00  0.0000000000000E+00
151  1.5000000000000E+00  0.0000000000000E+00  0.0000000000000E+00
152  1.5100000000000E+00  0.0000000000000E+00  0.0000000000000E+00
153  1.5200000000000E+00  0.0000000000000E+00  0.0000000000000E+00
154  1.5300000000000E+00  0.0000000000000E+00  0.0000000000000E+00
155  1.5400000000000E+00  0.0000000000000E+00  0.0000000000000E+00
156  1.5500000000000E+00  0.0000000000000E+00  0.0000000000000E+00
157  1.5600000000000E+00  0.0000000000000E+00  0.0000000000000E+00
158  1.5700000000000E+00  0.0000000000000E+00  0.0000000000000E+00
159  1.5800000000000E+00  0.0000000000000E+00  0.0000000000000E+00
160  1.5900000000000E+00  0.0000000000000E+00  0.0000000000000E+00
161  1.6000000000000E+00  0.0000000000000E+00  0.0000000000000E+00
162  1.6100000000000E+00  0.0000000000000E+00  0.0000000000000E+00
163  1.6200000000000E+00  0.0000000000000E+00  0.0000000000000E+00
164  1.6300000000000E+00  0.0000000000000E+00  0.0000000000000E+00
165  1.6400000000000E+00  0.0000000000000E+00  0.0000000000000E+00
166  1.6500000000000E+00  0.0000000000000E+00  0.0000000000000E+00
167  1.6600000000000E+00  0.0000000000000E+00  0.0000000000000E+00
168  1.6700000000000E+00  0.0000000000000E+00  0.0000000000000E+00
169  1.6800000000000E+00  0.0000000000000E+00  0.0000000000000E+00
170  1.6900000000000E+00  0.0000000000000E+00  0.0000000000000E+00
171  1.7000000000000E+00  0.0000000000000E+00  0.0000000000000E+00
172  1.7100000000000E+00  0.0000000000000E+00  0.0000000000000E+00
173  1.7200000000000E+00  0.0000000000000E+00  0.0000000000000E+00
174  1.7300000000000E+00  0.0000000000000E+00  0.0000000000000E+00
175  1.7400000000000E+00  0.0000000000000E+00  0.0000000000000E+00
176  1.7500000000000E+00  0.0000000000000E+00  0.0000000000000E+00
177  1.7600000000000E+00  0.0000000000000E+00  0.0000000000000E+00
178  1.7700000000000E+00  0.0000000000000E+00  0.0000000000000E+00
179  1.7800000000000E+00  0.0000000000000E+00  0.0000000000000E+00
180  1.7900000000000E+00  0.0000000000000E+00  0.0000000000000E+00
181  1.8000000000000E+00  0.0000000000000E+00  0.0000000000000E+00
182  1.8100000000000E+00  0.0000000000000E+00  0.0000000000000E+00
183  1.8200000000000E+00  0.0000000000000E+00  0.0000000000000E+00
184  1.8300000000000E+00  0.0000000000000E+00  0.0000000000000E+00
185  1.8400000000000E+00  0.0000000000000E+00  0.0000000000000E+00
186  1.8500000000000E+00  0.0000000000000E+00  0.0000000000000E+00
187  1.8600000000000E+00  0.0000000000000E+00  0.0000000000000E+00
188  1.8700000000000E+00  0.0000000000000E+00  0.0000000000000E+00
189  1.8800000000000E+00  0.0000000000000E+00  0.0000000000000E+00
190  1.8900000000000E+00  0.0000000000000E+00  0.0000000000000E+00
191  1.9000000000000E+00  0.0000000000000E+00  0.0000000000000E+00
192  1.9100000000000E+00  0.0000000000000E+00  0.0000000000000E+00
193  1.9200000000000E+00  0.0000000000000E+00  0.0000000000000E+00
194  1.9300000000000E+00  0.0000000000000E+00  0.0000000000000E+00
195  1.9400000000000E+00  0.0000000000000E+00  0.0000000000000E+00
196  1.9500000000000E+00  0.0000000000000E+00  0.0000000000000E+00
197  1.9600000000000E+00  0.0000000000000E+00  0.0000000000000E+00
198  1.9700000000000E+00  0.0000000000000E+00  0.0000000000000E+00
199  1.9800000000000E+00  0.0000000000000E+00  0.0000000000000E+00
200  1.9900000000000E+00  0.0000000000000E+00  0.0000000000000E+00
201  2.0000000000000E+00  0.0000000000000E+00  0.0000000000000E+00
202  2.0100000000000E+00  0.0000000000000E+00  0.0000000000000E+00
203  2.0200000000000E+00  0.0000000000000E+00  0.0000000000000E+00
204  2.0300000000000E+00  0.0000000000000E+00  0.0000000000000E+00
205  2.0400000000000E+00  0.0000000000000E+00  0.0000000000000E+00
206  2.0500000000000E+00  0.0000000000000E+00  0.0000000000000E+00
207  2.0600000000000E+00  0.0000000000000E+00  0.0000000000000E+00
208  2.0700000000000E+00  0.0000000000000E+00  0.0000000000000E+00
209  2.0800000000000E+00  0.0000000000000E+00  0.0000000000000E+00
210  2.0900000000000E+00  0.0000000000000E+00  0.0000000000000E+00
211  2.1000000000000E+00  0.0000000000000E+00  0.0000000000000E+00
212  2.1100000000000E+00  0.0000000000000E+00  0.0000000000000E+00
213  2.1200000000000E+00  0.0000000000000E+00  0.0000000000000E+00
214  2.1300000000000E+00  0.0000000000000E+00  0.0000000000000E+00
215  2.1400000000000E+00  0.0000000000000E+00  0.0000000000000E+00
216  2.1500000000000E+00  0.0000000000000E+00  0.0000000000000E+00
217  2.1600000000000E+00  0.0000000000000E+00  0.0000000000000E+00
218  2.1700000000000E+00  0.0000000000000E+00  0.0000000000000E+00
219  2.1800000000000E+00  0.0000000000000E+00  0.0000000000000E+00
220  2.1900000000000E+00  0.0000000000000E+00  0.0000000000000E+00
221  2.2000000000000E+00  0.0000000000000E+00  0.0000000000000E+00
222  2.2100000000000E+00  0.0000000000000E+00  0.0000000000000E+00
223  2.2200000000000E+00  0.0000000000000E+00  0.0000000000000E+00
224  2.2300000000000E+00  0.0000000000000E+00  0.0000000000000E+00
225  2.2400000000000E+00  0.0000000000000E+00  0.0000000000000E+00
226  2.2500000000000E+00  0.0000000000000E+00  0.0000000000000E+00
227  2.2600000000000E+00  0.0000000000000E+00  0.0000000000000E+00
228  2.2700000000000E+00  0.0000000000000E+00  0.0000000000000E+00
229  2.2800000000000E+00  0.0000000000000E+00  0.0000000000000E+00
230  2.2900000000000E+00  0.0000000000000E+00  0.0000000000000E+00
231  2.3000000000000E+00  0.0000000000000E+00  0.0000000000000E+00
232  2.3100000000000E+00  0.0000000000000E+00  0.0000000000000E+00
233  2.3200000000000E+00  0.0000000000000E+00  0.0000000000000E+00
234  2.3300000000000E+00  0.0000000000000E+00  0.0000000000000E+00
235  2.3400000000000E+00  0.0000000000000E+00  0.0000000000000E+00
236  2.3500000000000E+00  0.0000000000000E+00  0.0000000000000E+00
237  2.3600000000000E+00  0.0000000000000E+00  0.0000000000000E+00
238  2.3700000000000E+00  0.0000000000000E+00  0.0000000000000E+00
239  2.3800000000000E+00  0.0000000000000E+00  0.0000000000000E+00
240  2.3900000000000E+00  0.0000000000000E+00  0.0000000000000E+00
241  2.4000000000000E+00  0.0000000000000E+00  0.0000000000000E+00
242  2.4100000000000E+00  0.0000000000000E+00  0.0000000000000E+00
243  2.4200000000000E+00  0.0000000000000E+00  0.0000000000000E+00
244  2.4300000000000E+00  0.0000000000000E+00  0.0000000000000E+00
245  2.4400000000000E+00  0.0000000000000E+00  0.0000000000000E+00
246  2.4500000000000E+00  0.0000000000000E+00  0.0000000000000E+00
247  2.4600000000000E+00  0.0000000000000E+00  0.0000000000000E+00
248  2.4700000000000E+00  0.0000000000000E+00  0.0000000000000E+00
249  2.4800000000000E+00  0.0000000000000E+00  0.0000000000000E+00
250  2.4900000000000E+00  0.0000000000000E+00  0.0000000000000E+00
251  2.5000000000000E+00  0.0000000000000E+00  0.0000000000000E+00
252  2.5100000000000E+00  0.0000000000000E+00  0.0000000000000E+00
253  2.5200000000000E+00  0.0000000000000E+00  0.0000000000000E+00
254  2.5300000000000E+00  0.0000000000000E+00  0.0000000000000E+00
255  2.5400000000000E+00  0.0000000000000E+00  0.0000000000000E+00
256  2.5500000000000E+00  0.0000000000000E+00  0.0000000000000E+00
257  2.5600000000000E+00  0.0000000000000E+00  0.0000000000000E+00
258  2.5700000000000E+00  0.0000000000000E+00  0.0000000000000E+00
259  2.5800000000000E+00  0.0000000000000E+00  0.0000000000000E+00
260  2.5900000000000E+00  0.0000000000000E+00  0.0000000000000E+00
261  2.6000000000000E+00  0.0000000000000E+00  0.0000000000000E+00
262  2.6100000000000E+00  0.0000000000000E+00  0.0000000000000E+00
263  2.6200000000000E+00  0.0000000000000E+00  0.0000000000000E+00
264  2.6300000000000E+00  0.0000000000000E+00  0.0000000000000E+00
265  2.6400000000000E+00  0.0000000000000E+00  0.0000000000000E+00
266  2.6500000000000E+00  0.0000000000000E+00  0.0000000000000E+00
267  2.6600000000000E+00  0.0000000000000E+00  0.0000000000000E+00
268  2.6700000000000E+00  0.0000000000000E+00  0.0000000000000E+00
269  2.6800000000000E+00  0.0000000000000E+00  0.0000000000000E+00
270  2.6900000000000E+00  0.0000000000000E+00  0.0000000000000E+00
271  2.7000000000000E+00  0.0000000000000E+00  0.0000000000000E+00
272  2.7100000000000E+00  0.0000000000000E+00  0.0000000000000E+00
273  2.7200000000000E+00  0.0000000000000E+00  0.0000000000000E+00
274  2.7300000000000E+00  0.0000000000000E+00  0.0000000000000E+00
275  2.7400000000000E+00  0.0000000000000E+00  0.0000000000000E+00
276  2.7500000000000E+00  0.0000000000000E+00  0.0000000000000E+00
277  2.7600000000000E+00  0.0000000000000E+00  0.0000000000000E+00
278  2.7700000000000E+00  0.0000000000000E+00  0.0000000000000E+00
279  2.7800000000000E+00  0.0000000000000E+00  0.0000000000000E+00
280  2.7900000000000E+00  0.0000000000000E+00  0.0000000000000E+00
281  2.8000000000000E+00  0.0000000000000E+00  0.0000000000000E+00
282  2.8100000000000E+00  0.0000000000000E+00  0.0000000000000E+00
283  2.8200000000000E+00  0.0000000000000E+00  0.0000000000000E+00
284  2.8300000000000E+00  0.0000000000000E+00  0.0000000000000E+00
285  2.8400000000000E+00  0.0000000000000E+00  0.0000000000000E+00
286  2.8500000000000E+00  0.0000000000000E+00  0.0000000000000E+00
287  2.8600000000000E+00  0.0000000000000E+00  0.0000000000000E+00
288  2.8700000000000E+00  0.0000000000000E+00  0.0000000000000E+00
289  2.8800000000000E+00  0.0000000000000E+00  0.0000000000000E+00
290  2.8900000000000E+00  0.0000000000000E+00  0.0000000000000E+00
291  2.9000000000000E+00  0.0000000000000E+00  0.0000000000000E+00
292  2.9100000000000E+00  0.0000000000000E+00  0.0000000000000E+00
293  2.9200000000000E+00  0.0000000000000E+00  0.0000000000000E+00
294  2.9300000000000E+00  0.0000000000000E+00  0.0000000000000E+00
295  2.9400000000000E+00  0.0000000000000E+00  0.0000000000000E+00
296  2.9500000000000E+00  0.0000000000000E+00  0.0000000000000E+00
297  2.9600000000000E+00  0.0000000000000E+00  0.0000000000000E+00
298  2.9700000000000E+00  0.0000000000000E+00  0.0000000000000E+00
299  2.9800000000000E+00  0.0000000000000E+00  0.0000000000000E+00
300  2.9900000000000E+00  0.0000000000000E+00  0.0000000000000E+00
301  3.0000000000000E+00  0.0000000000000E+00  0.0000000000000E+00
302  3.0100000000000E+00  0.0000000000000E+00  0.0000000000000E+00
303  3.0200000000000E+00  0.0000000000000E+00  0.0000000000000E+00
304  3.0300000000000E+00  0.0000000000000E+00  0.0000000000000E+00
305  3.0400000000000E+00  0.0000000000000E+00  0.0000000000000E+00
306  3.0500000000000E+00  0.0000000000000E+00  0.0000000000000E+00
307  3.0600000000000E+00  0.0000000000000E+00  0.0000000000000E+00
308  3.0700000000000E+00  0.0000000000000E+00  0.0000000000000E+00
309  3.0800000000000E+00  0.0000000000000E+00  0.0000000000000E+00
310  3.0900000000000E+00  0.0000000000000E+00  0.0000000000000E+00
311  3.1000000000000E+00  0.0000000000000E+00  0.0000000000000E+00
312  3.1100000000000E+00  0.0000000000000E+00  0.0000000000000E+00
313  3.1200000000000E+00  0.0000000000000E+00  0.0000000000000E+00
314  3.1300000000000E+00  0.0000000000000E+00  0.0000000000000E+00
315  3.1400000000000E+00  0.0000000000000E+00  0.0000000000000E+00
316  3.1500000000000E+00  0.0000000000000E+00  0.0000000000000E+00
317  3.1600000000000E+00  0.0000000000000E+00  0.0000000000000E+00
318  3.1700000000000E+00  0.0000000000000E+00  0.0000000000000E+00
319  3.1800000000000E+00  0.0000000000000E+00  0.0000000000000E+00
320  3.1900000000000E+00  0.0000000000000E+00  0.0000000000000E+00
321  3.2000000000000E+00  0.0000000000000E+00  0.0000000000000E+00
322  3.2100000000000E+00  0.0000000000000E+00  0.0000000000000E+00
323  3.2200000000000E+00  0.0000000000000E+00  0.0000000000000E+00
324  3.2300000000000E+00  0.0000000000000E+00  0.0000000000000E+00
325  3.2400000000000E+00  0.0000000000000E+00  0.0000000000000E+00
326  3.2500000000000E+00  0.0000000000000E+00  0.0000000000000E+00
327  3.2600000000000E+00  0.0000000000000E+00  0.0000000000000E+00
328  3.2700000000000E+00  0.0000000000000E+00  0.0000000000000E+00
329  3.2800000000000E+00  0.0000000000000E+00  0.0000000000000E+00
330  3.2900000000000E+00  0.0000000000000E+00  0.0000000000000E+00
331  3.3000000000000E+00  0.0000000000000E+00  0.0000000000000E+00
332  3.3100000000000E+00  0.0000000000000E+00  0.0000000000000E+00
333  3.3200000000000E+00  0.0000000000000E+00  0.0000000000000E+00
334  3.3300000000000E+00  0.0000000000000E+00  0.0000000000000E+00
335  3.3400000000000E+00  0.0000000000000E+00  0.0000000000000E+00
336  3.3500000000000E+00  0.0000000000000E+00  0.0000000000000E+00
337  3.3600000000000E+00  0.0000000000000E+00  0.0000000000000E+00
338  3.3700000000000E+00  0.0000000000000E+00  0.0000000000000E+00
339  3.3800000000000E+00  0.0000000000000E+00  0.0000000000000E+00
340  3.3900000000000E+00  0.0000000000000E+00  0.0000000000000E+00
341  3.4000000000000E+00  0.0000000000000E+00  0.0000000000000E+00
342  3.4100000000000E+00  0.0000000000000E+00  0.0000000000000E+00
343  3.4200000000000E+00  0.0000000000000E+00  0.0000000000000E+00
344  3.4300000000000E+00  0.0000000000000E+00  0.0000000000000E+00
345  3.4400000000000E+00  0.0000000000000E+00  0.0000000000000E+00
346  3.4500000000000E+00  0.0000000000000E+00  0.0000000000000E+00
347  3.4600000000000E+00  0.0000000000000E+00  0.0000000000000E+00
348  3.4700000000000E+00  0.0000000000000E+00  0.0000000000000E+00
349  3.4800000000000E+00  0.0000000000000E+00  0.0000000000000E+00
350  3.4900000000000E+00  0.0000000000000E+00  0.0000000000000E+00
351  3.5000000000000E+00  0.0000000000000E+00  0.0000000000000E+00
352  3.5100000000000E+00  0.0000000000000E+00  0.0000000000000E+00
353  3.5200000000000E+00  0.0000000000000E+00  0.0000000000000E+00
354  3.5300000000000E+00  0.0000000000000E+00  0.0000000000000E+00
355  3.5400000000000E+00  0.0000000000000E+00  0.0000000000000E+00
356  3.5500000000000E+00  0.0000000000000E+00  0.0000000000000E+00
357  3.5600000000000E+00  0.0000000000000E+00  0.0000000000000E+00
358  3.5700000000000E+00  0.0000000000000E+00  0.0000000000000E+00
359  3.5800000000000E+00  0.0000000000000E+00  0.0000000000000E+00
360  3.5900000000000E+00  0.0000000000000E+00  0.0000000000000E+00
361  3.6000000000000E+00  0.0000000000000E+00  0.0000000000000E+00
362  3.6100000000000E+00  0.0000000000000E+00  0.0000000000000E+00
363  3.6200000000000E+00  0.0000000000000E+00  0.0000000000000E+00
364  3.6300000000000E+00  0.0000000000000E+00  0.0000000000000E+00
365  3.6400000000000E+00  0.0000000000000E+00  0.0000000000000E+00
366  3.6500000000000E+00  0.0000000000000E+00  0.0000000000000E+00
367  3.6600000000000E+00  0.0000000000000E+00  0.0000000000000E+00
368  3.6700000000000E+00  0.0000000000000E+00  0.0000000000000E+00
369  3.6800000000000E+00  0.0000000000000E+00  0.0000000000000E+00
370  3.6900000000000E+00  0.0000000000000E+00  0.0000000000000E+00
371  3.7000000000000E+00  0.0000000000000E+00  0.0000000000000E+00
372  3.7100000000000E+00  0.0000000000000E+00  0.0000000000000E+00
373  3.7200000000000E+00  0.0000000000000E+00  0.0000000000000E+00
374  3.7300000000000E+00  0.0000000000000E+00  0.0000000000000E+00
375  3.7400000000000E+00  0.0000000000000E+00  0.0000000000000E+00
376  3.7500000000000E+00  0.0000000000000E+00  0.0000000000000E+00
377  3.7600000000000E+00  0.0000000000000E+00  0.0000000000000E+00
378  3.7700000000000E+00  0.0000000000000E+00  0.0000000000000E+00
379  3.7800000000000E+00  0.0000000000000E+00  0.0000000000000E+00
380  3.7900000000000E+00  0.0000000000000E+00  0.0000000000000E+00
381  3.8000000000000E+00  0.0000000000000E+00  0.0000000000000E+00
382  3.8100000000000E+00  0.0000000000000E+00  0.0000000000000E+00
383  3.8200000000000E+00  0.0000000000000E+00  0.0000000000000E+00
384  3.8300000000000E+00  0.0000000000000E+00  0.0000000000000E+00
385  3.8400000000000E+00  0.0000000000000E+00  0.0000000000000E+00
386  3.8500000000000E+00  0.0000000000000E+00  0.0000000000000E+00
387  3.8600000000000E+00  0.0000000000000E+00  0.0000000000000E+00
388  3.8700000000000E+00  0.0000000000000E+00  0.0000000000000E+00
389  3.8800000000000E+00  0.0000000000000E+00  0.0000000000000E+00
390  3.8900000000000E+00  0.0000000000000E+00  0.0000000000000E+00
391  3.9000000000000E+00  0.0000000000000E+00  0.0000000000000E+00
392  3.9100000000000E+00  0.0000000000000E+00  0.0000000000000E+00
393  3.9200000000000E+00  0.0000000000000E+00  0.0000000000000E+00
394  3.9300000000000E+00  0.0000000000000E+00  0.0000000000000E+00
395  3.9400000000000E+00  0.0000000000000E+00  0.0000000000000E+00
396  3.9500000000000E+00  0.0000000000000E+00  0.0000000000000E+00
397  3.9600000000000E+00  0.0000000000000E+00  0.0000000000000E+00
398  3.9700000000000E+00  0.0000000000000E+00  0.0000000000000E+00
399  3.9800000000000E+00  0.0000000000000E+00  0.0000000000000E+00
400  3.9900000000000E+00  0.0000000000000E+00  0.0000000000000E+00
401  4.0000000000000E+00  0.0000000000000E+00  0.0000000000000E+00
402  4.0100000000000E+00  0.0000000000000E+00  0.0000000000000E+00
403  4.0200000000000E+00  0.0000000000000E+00  0.0000000000000E+00
404  4.0300000000000E+00  0.0000000000000E+00  0.0000000000000E+00
405  4.0400000000000E+00  0.0000000000000E+00  0.0000000000000E+00
406  4.0500000000000E+00  0.0000000000000E+00  0.0000000000000E+00
407  4.0600000000000E+00  0.0000000000000E+00  0.0000000000000E+00
408  4.0700000000000E+00  0.0000000000000E+00  0.0000000000000E+00
409  4.0800000000000E+00  0.0000000000000E+00  0.0000000000000E+00
410  4.0900000000000E+00  0.0000000000000E+00  0.0000000000000E+00
411  4.1000000000000E+00  0.0000000000000E+00  0.0000000000000E+00
412  4.1100000000000E+00  0.0000000000000E+00  0.0000000000000E+00
413  4.1200000000000E+00  0.0000000000000E+00  0.0000000000000E+00
414  4.1300000000000E+00  0.0000000000000E+00  0.0000000000000E+00
415  4.1400000000000E+00  0.0000000000000E+00  0.0000000000000E+00
416  4.1500000000000E+00  0.0000000000000E+00  0.0000000000000E+00
417  4.1600000000000E+00  0.0000000000000E+00  0.0000000000000E+00
418  4.1700000000000E+00  0.0000000000000E+00  0.0000000000000E+00
419  4.1800000000000E+00  0.0000000000000E+00  0.0000000000000E+00
420  4.1900000000000E+00  0.0000000000000E+00  0.0000000000000E+00
421  4.2000000000000E+00  0.0000000000000E+00  0.0000000000000E+00
422  4.2100000000000E+00  0.0000000000000E+00  0.0000000000000E+00
423  4.2200000000000E+00  0.0000000000000E+00  0.0000000000000E+00
424  4.2300000000000E+00  0.0000000000000E+00  0.0000000000000E+00
425  4.2400000000000E+00  0.0000000000000E+00  0.0000000000000E+00
426  4.2500000000000E+00  0.0000000000000E+00  0.0000000000000E+00
427  4.2600000000000E+00  0.0000000000000E+00  0.0000000000000E+00
428  4.2700000000000E+00  0.0000000000000E+00  0.0000000000000E+00
429  4.2800000000000E+00  0.0000000000000E+00  0.0000000000000E+00
430  4.2900000000000E+00  0.0000000000000E+00  0.0000000000000E+00
431  4.3000000000000E+00  0.0000000000000E+00  0.0000000000000E+00
432  4.3100000000000E+00  0.0000000000000E+00  0.0000000000000E+00
433  4.3200000000000E+00  0.0000000000000E+00  0.0000000000000E+00
434  4.3300000000000E+00  0.0000000000000E+00  0.0000000000000E+00
435  4.3400000000000E+00  0.0000000000000E+00  0.0000000000000E+00
436  4.3500000000000E+00  0.0000000000000E+00  0.0000000000000E+00
437  4.3600000000000E+00  0.0000000000000E+00  0.0000000000000E+00
438  4.3700000000000E+00  0.0000000000000E+00  0.0000000000000E+00
439  4.3800000000000E+00  0.0000000000000E+00  0.0000000000000E+00
440  4.3900000000000E+00  0.0000000000000E+00  0.0000000000000E+00
441  4.4000000000000E+00  0.0000000000000E+00  0.0000000000000E+00
442  4.4100000000000E+00  0.0000000000000E+00  0.0000000000000E+00
443  4.4200000000000E+00  0.0000000000000E+00  0.0000000000000E+00