N     ONCVPSP-3.2.3.1  r_core=   1.20551   1.35824
7.0000      5.0000      170503    zatom,zion,pspd
8      11   1     4   600     0    pspcod,pspxc,lmax,lloc,mmax,r2well
5.99000000  4.00000000  0.00000000    rchrg fchrg qchrg
2     2     0     0     0    nproj
1     1           extension_switch
0                         7.4945088144027E+00  6.3630495169662E-01
1  0.0000000000000E+00 -3.3431593049471E-09  1.7910622873707E-08
2  1.0000000000000E-02  9.4537664568024E-02 -6.0658145186611E-02
3  2.0000000000000E-02  1.8873006386481E-01 -1.2059666821381E-01
4  3.0000000000000E-02  2.8223476979408E-01 -1.7910733756255E-01
5  4.0000000000000E-02  3.7471498397291E-01 -2.3550447688530E-01
6  5.0000000000000E-02  4.6584224187739E-01 -2.8913568203951E-01
7  6.0000000000000E-02  5.5529898658224E-01 -3.3939187857811E-01
8  7.0000000000000E-02  6.4278097265076E-01 -3.8571652142232E-01
9  8.0000000000000E-02  7.2799946407422E-01 -4.2761375635261E-01
10  9.0000000000000E-02  8.1068319420838E-01 -4.6465538463064E-01
11  1.0000000000000E-01  8.9058006032454E-01 -4.9648649705569E-01
12  1.1000000000000E-01  9.6745853058840E-01 -5.2282967154129E-01
13  1.2000000000000E-01  1.0411087468947E+00 -5.4348765829120E-01
14  1.3000000000000E-01  1.1113433129036E+00 -5.5834450823074E-01
15  1.4000000000000E-01  1.1779977627254E+00 -5.6736513284961E-01
16  1.5000000000000E-01  1.2409307118553E+00 -5.7059331635359E-01
17  1.6000000000000E-01  1.3000236980484E+00 -5.6814823331930E-01
18  1.7000000000000E-01  1.3551807257137E+00 -5.6021955621953E-01
19  1.8000000000000E-01  1.4063275329813E+00 -5.4706126658056E-01
20  1.9000000000000E-01  1.4534106057418E+00 -5.2898431052787E-01
21  2.0000000000000E-01  1.4963959675627E+00 -5.0634826350218E-01
22  2.1000000000000E-01  1.5352677783621E+00 -4.7955218947447E-01
23  2.2000000000000E-01  1.5700267779864E+00 -4.4902489661713E-01
24  2.3000000000000E-01  1.6006886133199E+00 -4.1521480374612E-01
25  2.4000000000000E-01  1.6272820892111E+00 -3.7857963966154E-01
26  2.5000000000000E-01  1.6498473842938E+00 -3.3957620061507E-01
27  2.6000000000000E-01  1.6684342726914E+00 -2.9865038944023E-01
28  2.7000000000000E-01  1.6831003916369E+00 -2.5622775342507E-01
29  2.8000000000000E-01  1.6939095932232E+00 -2.1270472690909E-01
30  2.9000000000000E-01  1.7009304158712E+00 -1.6844076906928E-01
31  3.0000000000000E-01  1.7042347077160E+00 -1.2375156774089E-01
32  3.1000000000000E-01  1.7038964300409E+00 -7.8903456797992E-02
33  3.2000000000000E-01  1.6999906642136E+00 -3.4109168080260E-02
34  3.3000000000000E-01  1.6925928404139E+00  1.0474990355471E-02
35  3.4000000000000E-01  1.6817782008786E+00  5.4750469146307E-02
36  3.5000000000000E-01  1.6676215045615E+00  9.8676297857476E-02
37  3.6000000000000E-01  1.6501969741302E+00  1.4226739609093E-01
38  3.7000000000000E-01  1.6295784802300E+00  1.8559141442471E-01
39  3.8000000000000E-01  1.6058399520611E+00  2.2876417685293E-01
40  3.9000000000000E-01  1.5790559976766E+00  2.7194382772054E-01
41  4.0000000000000E-01  1.5493027121213E+00  3.1532381540874E-01
42  4.1000000000000E-01  1.5166586467305E+00  3.5912487160379E-01
43  4.2000000000000E-01  1.4812059086796E+00  4.0358616828681E-01
44  4.3000000000000E-01  1.4430313563278E+00  4.4895585411206E-01
45  4.4000000000000E-01  1.4022278531069E+00  4.9548118715351E-01
46  4.5000000000000E-01  1.3588955407302E+00  5.4339849175360E-01
47  4.6000000000000E-01  1.3131430913937E+00  5.9292317313898E-01
48  4.7000000000000E-01  1.2650888984293E+00  6.4424002442699E-01
49  4.8000000000000E-01  1.2148621655725E+00  6.9749405657869E-01
50  4.9000000000000E-01  1.1626038565999E+00  7.5278207280592E-01
51  5.0000000000000E-01  1.1084674695667E+00  8.1014519508157E-01
52  5.1000000000000E-01  1.0526196031642E+00  8.6956253197347E-01
53  5.2000000000000E-01  9.9524028678107E-01  9.3094615439104E-01
54  5.3000000000000E-01  9.3652305058757E-01  9.9413751944073E-01
55  5.4000000000000E-01  8.7667471729028E-01  1.0589054529749E+00
56  5.5000000000000E-01  8.1591490301628E-01  1.1249457691184E+00
57  5.6000000000000E-01  7.5447522094512E-01  1.1918825708691E+00
58  5.7000000000000E-01  6.9259818771821E-01  1.2592712402851E+00
59  5.8000000000000E-01  6.3053583914885E-01  1.3266030907602E+00
60  5.9000000000000E-01  5.6854806823012E-01  1.3933116179832E+00
61  6.0000000000000E-01  5.0690070472581E-01  1.4587802513160E+00
62  6.1000000000000E-01  4.4586336162974E-01  1.5223514740576E+00
63  6.2000000000000E-01  3.8570707931869E-01  1.5833371503355E+00
64  6.3000000000000E-01  3.2670180324567E-01  1.6410298685081E+00
65  6.4000000000000E-01  2.6911373533659E-01  1.6947150869886E+00
66  6.5000000000000E-01  2.1320260284311E-01  1.7436838484388E+00
67  6.6000000000000E-01  1.5921889113082E-01  1.7872458130665E+00
68  6.7000000000000E-01  1.0740108870274E-01  1.8247423515374E+00
69  6.8000000000000E-01  5.7972993630530E-02  1.8555594330020E+00
70  6.9000000000000E-01  1.1141130447062E-02  1.8791400441766E+00
71  7.0000000000000E-01 -3.2907674558717E-02  1.8949958813163E+00
72  7.1000000000000E-01 -7.4008513772024E-02  1.9027180680631E+00
73  7.2000000000000E-01 -1.1202037158561E-01  1.9019866686819E+00
74  7.3000000000000E-01 -1.4682781172400E-01  1.8925787874350E+00
75  7.4000000000000E-01 -1.7834234439323E-01  1.8743750706651E+00
76  7.5000000000000E-01 -2.0650344457587E-01  1.8473644580065E+00
77  7.6000000000000E-01 -2.3127919887726E-01  1.8116470622748E+00
78  7.7000000000000E-01 -2.5266656496181E-01  1.7674350936794E+00
79  7.8000000000000E-01 -2.7069123461014E-01  1.7150517820486E+00
80  7.9000000000000E-01 -2.8540709866258E-01  1.6549282900833E+00
81  8.0000000000000E-01 -2.9689531945703E-01  1.5875986505473E+00
82  8.1000000000000E-01 -3.0526302365924E-01  1.5136927998560E+00
83  8.2000000000000E-01 -3.1064163548068E-01  1.4339278189731E+00
84  8.3000000000000E-01 -3.1318487703678E-01  1.3490975290756E+00
85  8.4000000000000E-01 -3.1306646888063E-01  1.2600606233242E+00
86  8.5000000000000E-01 -3.1047756942322E-01  1.1677275465981E+00
87  8.6000000000000E-01 -3.0562399690436E-01  1.0730463615450E+00
88  8.7000000000000E-01 -2.9872328170469E-01  9.7698786122104E-01
89  8.8000000000000E-01 -2.9000160000030E-01  8.8053020544827E-01
90  8.9000000000000E-01 -2.7969064198924E-01  7.8464336943988E-01
91  9.0000000000000E-01 -2.6802446911244E-01  6.9027369895819E-01
92  9.1000000000000E-01 -2.5523641482139E-01  5.9832886612027E-01
93  9.2000000000000E-01 -2.4155608250341E-01  5.0966351392089E-01
94  9.3000000000000E-01 -2.2720649217617E-01  4.2506586567830E-01
95  9.4000000000000E-01 -2.1240142454113E-01  3.4524555812875E-01
96  9.5000000000000E-01 -1.9734300699680E-01  2.7082293411694E-01
97  9.6000000000000E-01 -1.8221958134724E-01  2.0232000325275E-01
98  9.7000000000000E-01 -1.6720388718926E-01  1.4015324647937E-01
99  9.8000000000000E-01 -1.5245158875564E-01  8.4628405640064E-02
100  9.9000000000000E-01 -1.3810016591489E-01  3.5937359500348E-02
101  1.0000000000000E+00 -1.2426818273705E-01 -5.8428530405161E-03
102  1.0100000000000E+00 -1.1105493942102E-01 -4.0748844255845E-02
103  1.0200000000000E+00 -9.8540505607660E-02 -6.8927548355874E-02
104  1.0300000000000E+00 -8.6786125405492E-02 -9.0630819394714E-02
105  1.0400000000000E+00 -7.5834976707713E-02 -1.0620806693943E-01
106  1.0500000000000E+00 -6.5713260746188E-02 -1.1609707682266E-01
107  1.0600000000000E+00 -5.6431590304270E-02 -1.2081320582532E-01
108  1.0700000000000E+00 -4.7986639490125E-02 -1.2093716950847E-01
109  1.0800000000000E+00 -4.0363012385701E-02 -1.1710167307241E-01
110  1.0900000000000E+00 -3.3535283298515E-02 -1.0997716013261E-01
111  1.1000000000000E+00 -2.7470158134767E-02 -1.0025697173299E-01
112  1.1100000000000E+00 -2.2128703241199E-02 -8.8642224869476E-02
113  1.1200000000000E+00 -1.7468587037156E-02 -7.5826724993426E-02
114  1.1300000000000E+00 -1.3446279354436E-02 -6.2482228495323E-02
115  1.1400000000000E+00 -1.0019153896054E-02 -4.9244367863806E-02
116  1.1500000000000E+00 -7.1474410505876E-03 -3.6699541271835E-02
117  1.1600000000000E+00 -4.7959812913502E-03 -2.5373051011560E-02
118  1.1700000000000E+00 -2.9368671253110E-03 -1.5723983152264E-02
119  1.1800000000000E+00 -1.5411132073303E-03 -8.0938711407713E-03
120  1.1900000000000E+00 -6.0779367273570E-04 -2.8243130120799E-03
121  1.2000000000000E+00 -1.5452065629466E-04 -1.9499741138625E-04
122  1.2100000000000E+00 -1.5827814901239E-05  3.4664047813287E-04
123  1.2200000000000E+00 -4.5156147937783E-09 -5.9496398333976E-07
124  1.2300000000000E+00 -1.4646863076585E-06 -5.5655474555096E-05
125  1.2400000000000E+00  1.0555801939064E-08  1.4058129817298E-05
126  1.2500000000000E+00  2.2121867641579E-08 -1.2225850441899E-07
127  1.2600000000000E+00  1.1876019593450E-07 -6.5633897529377E-07
128  1.2700000000000E+00  0.0000000000000E+00  0.0000000000000E+00
129  1.2800000000000E+00  0.0000000000000E+00  0.0000000000000E+00
130  1.2900000000000E+00  0.0000000000000E+00  0.0000000000000E+00
131  1.3000000000000E+00  0.0000000000000E+00  0.0000000000000E+00
132  1.3100000000000E+00  0.0000000000000E+00  0.0000000000000E+00
133  1.3200000000000E+00  0.0000000000000E+00  0.0000000000000E+00
134  1.3300000000000E+00  0.0000000000000E+00  0.0000000000000E+00
135  1.3400000000000E+00  0.0000000000000E+00  0.0000000000000E+00
136  1.3500000000000E+00  0.0000000000000E+00  0.0000000000000E+00
137  1.3600000000000E+00  0.0000000000000E+00  0.0000000000000E+00
138  1.3700000000000E+00  0.0000000000000E+00  0.0000000000000E+00
139  1.3800000000000E+00  0.0000000000000E+00  0.0000000000000E+00
140  1.3900000000000E+00  0.0000000000000E+00  0.0000000000000E+00
141  1.4000000000000E+00  0.0000000000000E+00  0.0000000000000E+00
142  1.4100000000000E+00  0.0000000000000E+00  0.0000000000000E+00
143  1.4200000000000E+00  0.0000000000000E+00  0.0000000000000E+00
144  1.4300000000000E+00  0.0000000000000E+00  0.0000000000000E+00
145  1.4400000000000E+00  0.0000000000000E+00  0.0000000000000E+00
146  1.4500000000000E+00  0.0000000000000E+00  0.0000000000000E+00
147  1.4600000000000E+00  0.0000000000000E+00  0.0000000000000E+00
148  1.4700000000000E+00  0.0000000000000E+00  0.0000000000000E+00
149  1.4800000000000E+00  0.0000000000000E+00  0.0000000000000E+00
150  1.4900000000000E+00  0.0000000000000E+00  0.0000000000000E+00
151  1.5000000000000E+00  0.0000000000000E+00  0.0000000000000E+00
152  1.5100000000000E+00  0.0000000000000E+00  0.0000000000000E+00
153  1.5200000000000E+00  0.0000000000000E+00  0.0000000000000E+00
154  1.5300000000000E+00  0.0000000000000E+00  0.0000000000000E+00
155  1.5400000000000E+00  0.0000000000000E+00  0.0000000000000E+00
156  1.5500000000000E+00  0.0000000000000E+00  0.0000000000000E+00
157  1.5600000000000E+00  0.0000000000000E+00  0.0000000000000E+00
158  1.5700000000000E+00  0.0000000000000E+00  0.0000000000000E+00
159  1.5800000000000E+00  0.0000000000000E+00  0.0000000000000E+00
160  1.5900000000000E+00  0.0000000000000E+00  0.0000000000000E+00
161  1.6000000000000E+00  0.0000000000000E+00  0.0000000000000E+00
162  1.6100000000000E+00  0.0000000000000E+00  0.0000000000000E+00
163  1.6200000000000E+00  0.0000000000000E+00  0.0000000000000E+00
164  1.6300000000000E+00  0.0000000000000E+00  0.0000000000000E+00
165  1.6400000000000E+00  0.0000000000000E+00  0.0000000000000E+00
166  1.6500000000000E+00  0.0000000000000E+00  0.0000000000000E+00
167  1.6600000000000E+00  0.0000000000000E+00  0.0000000000000E+00
168  1.6700000000000E+00  0.0000000000000E+00  0.0000000000000E+00
169  1.6800000000000E+00  0.0000000000000E+00  0.0000000000000E+00
170  1.6900000000000E+00  0.0000000000000E+00  0.0000000000000E+00
171  1.7000000000000E+00  0.0000000000000E+00  0.0000000000000E+00
172  1.7100000000000E+00  0.0000000000000E+00  0.0000000000000E+00
173  1.7200000000000E+00  0.0000000000000E+00  0.0000000000000E+00
174  1.7300000000000E+00  0.0000000000000E+00  0.0000000000000E+00
175  1.7400000000000E+00  0.0000000000000E+00  0.0000000000000E+00
176  1.7500000000000E+00  0.0000000000000E+00  0.0000000000000E+00
177  1.7600000000000E+00  0.0000000000000E+00  0.0000000000000E+00
178  1.7700000000000E+00  0.0000000000000E+00  0.0000000000000E+00
179  1.7800000000000E+00  0.0000000000000E+00  0.0000000000000E+00
180  1.7900000000000E+00  0.0000000000000E+00  0.0000000000000E+00
181  1.8000000000000E+00  0.0000000000000E+00  0.0000000000000E+00
182  1.8100000000000E+00  0.0000000000000E+00  0.0000000000000E+00
183  1.8200000000000E+00  0.0000000000000E+00  0.0000000000000E+00
184  1.8300000000000E+00  0.0000000000000E+00  0.0000000000000E+00
185  1.8400000000000E+00  0.0000000000000E+00  0.0000000000000E+00
186  1.8500000000000E+00  0.0000000000000E+00  0.0000000000000E+00
187  1.8600000000000E+00  0.0000000000000E+00  0.0000000000000E+00
188  1.8700000000000E+00  0.0000000000000E+00  0.0000000000000E+00
189  1.8800000000000E+00  0.0000000000000E+00  0.0000000000000E+00
190  1.8900000000000E+00  0.0000000000000E+00  0.0000000000000E+00
191  1.9000000000000E+00  0.0000000000000E+00  0.0000000000000E+00
192  1.9100000000000E+00  0.0000000000000E+00  0.0000000000000E+00
193  1.9200000000000E+00  0.0000000000000E+00  0.0000000000000E+00
194  1.9300000000000E+00  0.0000000000000E+00  0.0000000000000E+00
195  1.9400000000000E+00  0.0000000000000E+00  0.0000000000000E+00
196  1.9500000000000E+00  0.0000000000000E+00  0.0000000000000E+00
197  1.9600000000000E+00  0.0000000000000E+00  0.0000000000000E+00
198  1.9700000000000E+00  0.0000000000000E+00  0.0000000000000E+00
199  1.9800000000000E+00  0.0000000000000E+00  0.0000000000000E+00
200  1.9900000000000E+00  0.0000000000000E+00  0.0000000000000E+00
201  2.0000000000000E+00  0.0000000000000E+00  0.0000000000000E+00
202  2.0100000000000E+00  0.0000000000000E+00  0.0000000000000E+00
203  2.0200000000000E+00  0.0000000000000E+00  0.0000000000000E+00
204  2.0300000000000E+00  0.0000000000000E+00  0.0000000000000E+00
205  2.0400000000000E+00  0.0000000000000E+00  0.0000000000000E+00
206  2.0500000000000E+00  0.0000000000000E+00  0.0000000000000E+00
207  2.0600000000000E+00  0.0000000000000E+00  0.0000000000000E+00
208  2.0700000000000E+00  0.0000000000000E+00  0.0000000000000E+00
209  2.0800000000000E+00  0.0000000000000E+00  0.0000000000000E+00
210  2.0900000000000E+00  0.0000000000000E+00  0.0000000000000E+00
211  2.1000000000000E+00  0.0000000000000E+00  0.0000000000000E+00
212  2.1100000000000E+00  0.0000000000000E+00  0.0000000000000E+00
213  2.1200000000000E+00  0.0000000000000E+00  0.0000000000000E+00
214  2.1300000000000E+00  0.0000000000000E+00  0.0000000000000E+00
215  2.1400000000000E+00  0.0000000000000E+00  0.0000000000000E+00
216  2.1500000000000E+00  0.0000000000000E+00  0.0000000000000E+00
217  2.1600000000000E+00  0.0000000000000E+00  0.0000000000000E+00
218  2.1700000000000E+00  0.0000000000000E+00  0.0000000000000E+00
219  2.1800000000000E+00  0.0000000000000E+00  0.0000000000000E+00
220  2.1900000000000E+00  0.0000000000000E+00  0.0000000000000E+00
221  2.2000000000000E+00  0.0000000000000E+00  0.0000000000000E+00
222  2.2100000000000E+00  0.0000000000000E+00  0.0000000000000E+00
223  2.2200000000000E+00  0.0000000000000E+00  0.0000000000000E+00
224  2.2300000000000E+00  0.0000000000000E+00  0.0000000000000E+00
225  2.2400000000000E+00  0.0000000000000E+00  0.0000000000000E+00
226  2.2500000000000E+00  0.0000000000000E+00  0.0000000000000E+00
227  2.2600000000000E+00  0.0000000000000E+00  0.0000000000000E+00
228  2.2700000000000E+00  0.0000000000000E+00  0.0000000000000E+00
229  2.2800000000000E+00  0.0000000000000E+00  0.0000000000000E+00
230  2.2900000000000E+00  0.0000000000000E+00  0.0000000000000E+00
231  2.3000000000000E+00  0.0000000000000E+00  0.0000000000000E+00
232  2.3100000000000E+00  0.0000000000000E+00  0.0000000000000E+00
233  2.3200000000000E+00  0.0000000000000E+00  0.0000000000000E+00
234  2.3300000000000E+00  0.0000000000000E+00  0.0000000000000E+00
235  2.3400000000000E+00  0.0000000000000E+00  0.0000000000000E+00
236  2.3500000000000E+00  0.0000000000000E+00  0.0000000000000E+00
237  2.3600000000000E+00  0.0000000000000E+00  0.0000000000000E+00
238  2.3700000000000E+00  0.0000000000000E+00  0.0000000000000E+00
239  2.3800000000000E+00  0.0000000000000E+00  0.0000000000000E+00
240  2.3900000000000E+00  0.0000000000000E+00  0.0000000000000E+00
241  2.4000000000000E+00  0.0000000000000E+00  0.0000000000000E+00
242  2.4100000000000E+00  0.0000000000000E+00  0.0000000000000E+00
243  2.4200000000000E+00  0.0000000000000E+00  0.0000000000000E+00
244  2.4300000000000E+00  0.0000000000000E+00  0.0000000000000E+00
245  2.4400000000000E+00  0.0000000000000E+00  0.0000000000000E+00
246  2.4500000000000E+00  0.0000000000000E+00  0.0000000000000E+00
247  2.4600000000000E+00  0.0000000000000E+00  0.0000000000000E+00
248  2.4700000000000E+00  0.0000000000000E+00  0.0000000000000E+00
249  2.4800000000000E+00  0.0000000000000E+00  0.0000000000000E+00
250  2.4900000000000E+00  0.0000000000000E+00  0.0000000000000E+00
251  2.5000000000000E+00  0.0000000000000E+00  0.0000000000000E+00
252  2.5100000000000E+00  0.0000000000000E+00  0.0000000000000E+00
253  2.5200000000000E+00  0.0000000000000E+00  0.0000000000000E+00
254  2.5300000000000E+00  0.0000000000000E+00  0.0000000000000E+00
255  2.5400000000000E+00  0.0000000000000E+00  0.0000000000000E+00
256  2.5500000000000E+00  0.0000000000000E+00  0.0000000000000E+00
257  2.5600000000000E+00  0.0000000000000E+00  0.0000000000000E+00
258  2.5700000000000E+00  0.0000000000000E+00  0.0000000000000E+00
259  2.5800000000000E+00  0.0000000000000E+00  0.0000000000000E+00
260  2.5900000000000E+00  0.0000000000000E+00  0.0000000000000E+00
261  2.6000000000000E+00  0.0000000000000E+00  0.0000000000000E+00
262  2.6100000000000E+00  0.0000000000000E+00  0.0000000000000E+00
263  2.6200000000000E+00  0.0000000000000E+00  0.0000000000000E+00
264  2.6300000000000E+00  0.0000000000000E+00  0.0000000000000E+00
265  2.6400000000000E+00  0.0000000000000E+00  0.0000000000000E+00
266  2.6500000000000E+00  0.0000000000000E+00  0.0000000000000E+00
267  2.6600000000000E+00  0.0000000000000E+00  0.0000000000000E+00
268  2.6700000000000E+00  0.0000000000000E+00  0.0000000000000E+00
269  2.6800000000000E+00  0.0000000000000E+00  0.0000000000000E+00
270  2.6900000000000E+00  0.0000000000000E+00  0.0000000000000E+00
271  2.7000000000000E+00  0.0000000000000E+00  0.0000000000000E+00
272  2.7100000000000E+00  0.0000000000000E+00  0.0000000000000E+00
273  2.7200000000000E+00  0.0000000000000E+00  0.0000000000000E+00
274  2.7300000000000E+00  0.0000000000000E+00  0.0000000000000E+00
275  2.7400000000000E+00  0.0000000000000E+00  0.0000000000000E+00
276  2.7500000000000E+00  0.0000000000000E+00  0.0000000000000E+00
277  2.7600000000000E+00  0.0000000000000E+00  0.0000000000000E+00
278  2.7700000000000E+00  0.0000000000000E+00  0.0000000000000E+00
279  2.7800000000000E+00  0.0000000000000E+00  0.0000000000000E+00
280  2.7900000000000E+00  0.0000000000000E+00  0.0000000000000E+00
281  2.8000000000000E+00  0.0000000000000E+00  0.0000000000000E+00
282  2.8100000000000E+00  0.0000000000000E+00  0.0000000000000E+00
283  2.8200000000000E+00  0.0000000000000E+00  0.0000000000000E+00
284  2.8300000000000E+00  0.0000000000000E+00  0.0000000000000E+00
285  2.8400000000000E+00  0.0000000000000E+00  0.0000000000000E+00
286  2.8500000000000E+00  0.0000000000000E+00  0.0000000000000E+00
287  2.8600000000000E+00  0.0000000000000E+00  0.0000000000000E+00
288  2.8700000000000E+00  0.0000000000000E+00  0.0000000000000E+00
289  2.8800000000000E+00  0.0000000000000E+00  0.0000000000000E+00
290  2.8900000000000E+00  0.0000000000000E+00  0.0000000000000E+00
291  2.9000000000000E+00  0.0000000000000E+00  0.0000000000000E+00
292  2.9100000000000E+00  0.0000000000000E+00  0.0000000000000E+00
293  2.9200000000000E+00  0.0000000000000E+00  0.0000000000000E+00
294  2.9300000000000E+00  0.0000000000000E+00  0.0000000000000E+00
295  2.9400000000000E+00  0.0000000000000E+00  0.0000000000000E+00
296  2.9500000000000E+00  0.0000000000000E+00  0.0000000000000E+00
297  2.9600000000000E+00  0.0000000000000E+00  0.0000000000000E+00
298  2.9700000000000E+00  0.0000000000000E+00  0.0000000000000E+00
299  2.9800000000000E+00  0.0000000000000E+00  0.0000000000000E+00
300  2.9900000000000E+00  0.0000000000000E+00  0.0000000000000E+00
301  3.0000000000000E+00  0.0000000000000E+00  0.0000000000000E+00
302  3.0100000000000E+00  0.0000000000000E+00  0.0000000000000E+00
303  3.0200000000000E+00  0.0000000000000E+00  0.0000000000000E+00
304  3.0300000000000E+00  0.0000000000000E+00  0.0000000000000E+00
305  3.0400000000000E+00  0.0000000000000E+00  0.0000000000000E+00
306  3.0500000000000E+00  0.0000000000000E+00  0.0000000000000E+00
307  3.0600000000000E+00  0.0000000000000E+00  0.0000000000000E+00
308  3.0700000000000E+00  0.0000000000000E+00  0.0000000000000E+00
309  3.0800000000000E+00  0.0000000000000E+00  0.0000000000000E+00
310  3.0900000000000E+00  0.0000000000000E+00  0.0000000000000E+00
311  3.1000000000000E+00  0.0000000000000E+00  0.0000000000000E+00
312  3.1100000000000E+00  0.0000000000000E+00  0.0000000000000E+00
313  3.1200000000000E+00  0.0000000000000E+00  0.0000000000000E+00
314  3.1300000000000E+00  0.0000000000000E+00  0.0000000000000E+00
315  3.1400000000000E+00  0.0000000000000E+00  0.0000000000000E+00
316  3.1500000000000E+00  0.0000000000000E+00  0.0000000000000E+00
317  3.1600000000000E+00  0.0000000000000E+00  0.0000000000000E+00
318  3.1700000000000E+00  0.0000000000000E+00  0.0000000000000E+00
319  3.1800000000000E+00  0.0000000000000E+00  0.0000000000000E+00
320  3.1900000000000E+00  0.0000000000000E+00  0.0000000000000E+00
321  3.2000000000000E+00  0.0000000000000E+00  0.0000000000000E+00
322  3.2100000000000E+00  0.0000000000000E+00  0.0000000000000E+00
323  3.2200000000000E+00  0.0000000000000E+00  0.0000000000000E+00
324  3.2300000000000E+00  0.0000000000000E+00  0.0000000000000E+00
325  3.2400000000000E+00  0.0000000000000E+00  0.0000000000000E+00
326  3.2500000000000E+00  0.0000000000000E+00  0.0000000000000E+00
327  3.2600000000000E+00  0.0000000000000E+00  0.0000000000000E+00
328  3.2700000000000E+00  0.0000000000000E+00  0.0000000000000E+00
329  3.2800000000000E+00  0.0000000000000E+00  0.0000000000000E+00
330  3.2900000000000E+00  0.0000000000000E+00  0.0000000000000E+00
331  3.3000000000000E+00  0.0000000000000E+00  0.0000000000000E+00
332  3.3100000000000E+00  0.0000000000000E+00  0.0000000000000E+00
333  3.3200000000000E+00  0.0000000000000E+00  0.0000000000000E+00
334  3.3300000000000E+00  0.0000000000000E+00  0.0000000000000E+00
335  3.3400000000000E+00  0.0000000000000E+00  0.0000000000000E+00
336  3.3500000000000E+00  0.0000000000000E+00  0.0000000000000E+00
337  3.3600000000000E+00  0.0000000000000E+00  0.0000000000000E+00
338  3.3700000000000E+00  0.0000000000000E+00  0.0000000000000E+00
339  3.3800000000000E+00  0.0000000000000E+00  0.0000000000000E+00
340  3.3900000000000E+00  0.0000000000000E+00  0.0000000000000E+00
341  3.4000000000000E+00  0.0000000000000E+00  0.0000000000000E+00
342  3.4100000000000E+00  0.0000000000000E+00  0.0000000000000E+00
343  3.4200000000000E+00  0.0000000000000E+00  0.0000000000000E+00
344  3.4300000000000E+00  0.0000000000000E+00  0.0000000000000E+00
345  3.4400000000000E+00  0.0000000000000E+00  0.0000000000000E+00
346  3.4500000000000E+00  0.0000000000000E+00  0.0000000000000E+00
347  3.4600000000000E+00  0.0000000000000E+00  0.0000000000000E+00
348  3.4700000000000E+00  0.0000000000000E+00  0.0000000000000E+00
349  3.4800000000000E+00  0.0000000000000E+00  0.0000000000000E+00
350  3.4900000000000E+00  0.0000000000000E+00  0.0000000000000E+00
351  3.5000000000000E+00  0.0000000000000E+00  0.0000000000000E+00
352  3.5100000000000E+00  0.0000000000000E+00  0.0000000000000E+00
353  3.5200000000000E+00  0.0000000000000E+00  0.0000000000000E+00
354  3.5300000000000E+00  0.0000000000000E+00  0.0000000000000E+00
355  3.5400000000000E+00  0.0000000000000E+00  0.0000000000000E+00
356  3.5500000000000E+00  0.0000000000000E+00  0.0000000000000E+00
357  3.5600000000000E+00  0.0000000000000E+00  0.0000000000000E+00
358  3.5700000000000E+00  0.0000000000000E+00  0.0000000000000E+00
359  3.5800000000000E+00  0.0000000000000E+00  0.0000000000000E+00
360  3.5900000000000E+00  0.0000000000000E+00  0.0000000000000E+00
361  3.6000000000000E+00  0.0000000000000E+00  0.0000000000000E+00
362  3.6100000000000E+00  0.0000000000000E+00  0.0000000000000E+00
363  3.6200000000000E+00  0.0000000000000E+00  0.0000000000000E+00
364  3.6300000000000E+00  0.0000000000000E+00  0.0000000000000E+00
365  3.6400000000000E+00  0.0000000000000E+00  0.0000000000000E+00
366  3.6500000000000E+00  0.0000000000000E+00  0.0000000000000E+00
367  3.6600000000000E+00  0.0000000000000E+00  0.0000000000000E+00
368  3.6700000000000E+00  0.0000000000000E+00  0.0000000000000E+00
369  3.6800000000000E+00  0.0000000000000E+00  0.0000000000000E+00
370  3.6900000000000E+00  0.0000000000000E+00  0.0000000000000E+00
371  3.7000000000000E+00  0.0000000000000E+00  0.0000000000000E+00
372  3.7100000000000E+00  0.0000000000000E+00  0.0000000000000E+00
373  3.7200000000000E+00  0.0000000000000E+00  0.0000000000000E+00
374  3.7300000000000E+00  0.0000000000000E+00  0.0000000000000E+00
375  3.7400000000000E+00  0.0000000000000E+00  0.0000000000000E+00
376  3.7500000000000E+00  0.0000000000000E+00  0.0000000000000E+00
377  3.7600000000000E+00  0.0000000000000E+00  0.0000000000000E+00
378  3.7700000000000E+00  0.0000000000000E+00  0.0000000000000E+00
379  3.7800000000000E+00  0.0000000000000E+00  0.0000000000000E+00
380  3.7900000000000E+00  0.0000000000000E+00  0.0000000000000E+00
381  3.8000000000000E+00  0.0000000000000E+00  0.0000000000000E+00
382  3.8100000000000E+00  0.0000000000000E+00  0.0000000000000E+00
383  3.8200000000000E+00  0.0000000000000E+00  0.0000000000000E+00
384  3.8300000000000E+00  0.0000000000000E+00  0.0000000000000E+00
385  3.8400000000000E+00  0.0000000000000E+00  0.0000000000000E+00
386  3.8500000000000E+00  0.0000000000000E+00  0.0000000000000E+00
387  3.8600000000000E+00  0.0000000000000E+00  0.0000000000000E+00
388  3.8700000000000E+00  0.0000000000000E+00  0.0000000000000E+00
389  3.8800000000000E+00  0.0000000000000E+00  0.0000000000000E+00
390  3.8900000000000E+00  0.0000000000000E+00  0.0000000000000E+00
391  3.9000000000000E+00  0.0000000000000E+00  0.0000000000000E+00
392  3.9100000000000E+00  0.0000000000000E+00  0.0000000000000E+00
393  3.9200000000000E+00  0.0000000000000E+00  0.0000000000000E+00
394  3.9300000000000E+00  0.0000000000000E+00  0.0000000000000E+00
395  3.9400000000000E+00  0.0000000000000E+00  0.0000000000000E+00
396  3.9500000000000E+00  0.0000000000000E+00  0.0000000000000E+00
397  3.9600000000000E+00  0.0000000000000E+00  0.0000000000000E+00
398  3.9700000000000E+00  0.0000000000000E+00  0.0000000000000E+00
399  3.9800000000000E+00  0.0000000000000E+00  0.0000000000000E+00
400  3.9900000000000E+00  0.0000000000000E+00  0.0000000000000E+00
401  4.0000000000000E+00  0.0000000000000E+00  0.0000000000000E+00
402  4.0100000000000E+00  0.0000000000000E+00  0.0000000000000E+00
403  4.0200000000000E+00  0.0000000000000E+00  0.0000000000000E+00
404  4.0300000000000E+00  0.0000000000000E+00  0.0000000000000E+00
405  4.0400000000000E+00  0.0000000000000E+00  0.0000000000000E+00
406  4.0500000000000E+00  0.0000000000000E+00  0.0000000000000E+00
407  4.0600000000000E+00  0.0000000000000E+00  0.0000000000000E+00
408  4.0700000000000E+00  0.0000000000000E+00  0.0000000000000E+00
409  4.0800000000000E+00  0.0000000000000E+00  0.0000000000000E+00
410  4.0900000000000E+00  0.0000000000000E+00  0.0000000000000E+00
411  4.1000000000000E+00  0.0000000000000E+00  0.0000000000000E+00
412  4.1100000000000E+00  0.0000000000000E+00  0.0000000000000E+00
413  4.1200000000000E+00  0.0000000000000E+00  0.0000000000000E+00
414  4.1300000000000E+00  0.0000000000000E+00  0.0000000000000E+00
415  4.1400000000000E+00  0.0000000000000E+00  0.0000000000000E+00
416  4.1500000000000E+00  0.0000000000000E+00  0.0000000000000E+00
417  4.1600000000000E+00  0.0000000000000E+00  0.0000000000000E+00
418  4.1700000000000E+00  0.0000000000000E+00  0.0000000000000E+00
419  4.1800000000000E+00  0.0000000000000E+00  0.0000000000000E+00
420  4.1900000000000E+00  0.0000000000000E+00  0.0000000000000E+00
421  4.2000000000000E+00  0.0000000000000E+00  0.0000000000000E+00
422  4.2100000000000E+00  0.0000000000000E+00  0.0000000000000E+00
423  4.2200000000000E+00  0.0000000000000E+00  0.0000000000000E+00
424  4.2300000000000E+00  0.0000000000000E+00  0.0000000000000E+00
425  4.2400000000000E+00  0.0000000000000E+00  0.0000000000000E+00
426  4.2500000000000E+00  0.0000000000000E+00  0.0000000000000E+00
427  4.2600000000000E+00  0.0000000000000E+00  0.0000000000000E+00
428  4.2700000000000E+00  0.0000000000000E+00  0.0000000000000E+00
429  4.2800000000000E+00  0.0000000000000E+00  0.0000000000000E+00
430  4.2900000000000E+00  0.0000000000000E+00  0.0000000000000E+00
431  4.3000000000000E+00  0.0000000000000E+00  0.0000000000000E+00
432  4.3100000000000E+00  0.0000000000000E+00  0.0000000000000E+00
433  4.3200000000000E+00  0.0000000000000E+00  0.0000000000000E+00
434  4.3300000000000E+00  0.0000000000000E+00  0.0000000000000E+00
435  4.3400000000000E+00  0.0000000000000E+00  0.0000000000000E+00
436  4.3500000000000E+00  0.0000000000000E+00  0.0000000000000E+00
437  4.3600000000000E+00  0.0000000000000E+00  0.0000000000000E+00
438  4.3700000000000E+00  0.0000000000000E+00  0.0000000000000E+00
439  4.3800000000000E+00  0.0000000000000E+00  0.0000000000000E+00
440  4.3900000000000E+00  0.0000000000000E+00  0.0000000000000E+00
441  4.4000000000000E+00  0.0000000000000E+00  0.0000000000000E+00
442  4.4100000000000E+00  0.0000000000000E+00  0.0000000000000E+00
443  4.4200000000000E+00  0.0000000000000E+00  0.0000000000000E+00