O     ONCVPSP-3.2.3.1  r_core=   1.35509   1.45563   1.26150
8.0000      6.0000      170504    zatom,zion,pspd
8      11   2     4   600     0    pspcod,pspxc,lmax,lloc,mmax,r2well
5.99000000  4.00000000  0.00000000    rchrg fchrg qchrg
2     2     1     0     0    nproj
1     1           extension_switch
0                         6.0567354683862E+00  8.2402409647555E-01
1  0.0000000000000E+00 -2.2498329865783E-09  5.6883400767482E-09
2  1.0000000000000E-02  9.6628298964105E-02 -3.8338277531244E-02
3  2.0000000000000E-02  1.9288513881170E-01 -7.6200750970053E-02
4  3.0000000000000E-02  2.8840191058960E-01 -1.1311751295130E-01
5  4.0000000000000E-02  3.8281566855271E-01 -1.4863035920204E-01
6  5.0000000000000E-02  4.7577186955815E-01 -1.8229841566382E-01
7  6.0000000000000E-02  5.6692700343876E-01 -2.1370350043310E-01
8  7.0000000000000E-02  6.5595108070714E-01 -2.4245513893020E-01
9  8.0000000000000E-02  7.4252994619030E-01 -2.6819515639574E-01
10  9.0000000000000E-02  8.2636738993799E-01 -2.9060177874573E-01
11  1.0000000000000E-01  9.0718702993789E-01 -3.0939318087956E-01
12  1.1000000000000E-01  9.8473394475655E-01 -3.2433043059460E-01
13  1.2000000000000E-01  1.0587760381481E+00 -3.3521978616926E-01
14  1.3000000000000E-01  1.1291051218684E+00 -3.4191431626796E-01
15  1.4000000000000E-01  1.1955377073313E+00 -3.4431482192334E-01
16  1.5000000000000E-01  1.2579155012764E+00 -3.4237005177707E-01
17  1.6000000000000E-01  1.3161056052069E+00 -3.3607621332529E-01
18  1.7000000000000E-01  1.3700004229252E+00 -3.2547579442205E-01
19  1.8000000000000E-01  1.4195172849780E+00 -3.1065572055691E-01
20  1.9000000000000E-01  1.4645978031302E+00 -2.9174488425089E-01
21  2.0000000000000E-01  1.5052069720656E+00 -2.6891109312975E-01
22  2.1000000000000E-01  1.5413320392833E+00 -2.4235749266353E-01
23  2.2000000000000E-01  1.5729811675631E+00 -2.1231852804760E-01
24  2.3000000000000E-01  1.6001819173565E+00 -1.7905551710327E-01
25  2.4000000000000E-01  1.6229795789712E+00 -1.4285191226578E-01
26  2.5000000000000E-01  1.6414353864145E+00 -1.0400833460349E-01
27  2.6000000000000E-01  1.6556246462141E+00 -6.2837466287392E-02
28  2.7000000000000E-01  1.6656348154150E+00 -1.9658889944897E-02
29  2.8000000000000E-01  1.6715635632508E+00  2.5206036150053E-02
30  2.9000000000000E-01  1.6735168506937E+00  7.1439179088814E-02
31  3.0000000000000E-01  1.6716070612133E+00  1.1873042306787E-01
32  3.1000000000000E-01  1.6659512146262E+00  1.6678217032585E-01
33  3.2000000000000E-01  1.6566692939276E+00  2.1531347508671E-01
34  3.3000000000000E-01  1.6438827124946E+00  2.6406374096610E-01
35  3.4000000000000E-01  1.6277129460753E+00  3.1279592014675E-01
36  3.5000000000000E-01  1.6082803505892E+00  3.6129916154889E-01
37  3.6000000000000E-01  1.5857031830065E+00  4.0939086506818E-01
38  3.7000000000000E-01  1.5600968385253E+00  4.5691810955825E-01
39  3.8000000000000E-01  1.5315733129831E+00  5.0375843342807E-01
40  3.9000000000000E-01  1.5002408950015E+00  5.4981995831041E-01
41  4.0000000000000E-01  1.4662040878466E+00  5.9504085804868E-01
42  4.1000000000000E-01  1.4295637564689E+00  6.3938818704005E-01
43  4.2000000000000E-01  1.3904174907438E+00  6.8285609356767E-01
44  4.3000000000000E-01  1.3488601716443E+00  7.2546345495054E-01
45  4.4000000000000E-01  1.3049847230188E+00  7.6725098194675E-01
46  4.5000000000000E-01  1.2588830278858E+00  8.0827784967959E-01
47  4.6000000000000E-01  1.2106469847661E+00  8.4861792124141E-01
48  4.7000000000000E-01  1.1603696766109E+00  8.8835563791433E-01
49  4.8000000000000E-01  1.1081466224028E+00  9.2758165648491E-01
50  4.9000000000000E-01  1.0540770795588E+00  9.6638831930479E-01
51  5.0000000000000E-01  9.9826536387922E-01  1.0048650464629E+00
52  5.1000000000000E-01  9.4082215300360E-01  1.0430937416102E+00
53  5.2000000000000E-01  8.8186573916034E-01  1.0811443035708E+00
54  5.3000000000000E-01  8.2152319744998E-01  1.1190703348565E+00
55  5.4000000000000E-01  7.5993143697309E-01  1.1569051355818E+00
56  5.5000000000000E-01  6.9723810379475E-01  1.1946580670881E+00
57  5.6000000000000E-01  6.3360230700311E-01  1.2323113638731E+00
58  5.7000000000000E-01  5.6919514193225E-01  1.2698174652972E+00
59  5.8000000000000E-01  5.0419998795176E-01  1.3070969300637E+00
60  5.9000000000000E-01  4.3881256199525E-01  1.3440369868447E+00
61  6.0000000000000E-01  3.7324071319117E-01  1.3804907637104E+00
62  6.1000000000000E-01  3.0770394845111E-01  1.4162772274996E+00
63  6.2000000000000E-01  2.4243268364122E-01  1.4511818520149E+00
64  6.3000000000000E-01  1.7766721989915E-01  1.4849580212232E+00
65  6.4000000000000E-01  1.1365644967685E-01  1.5173291606925E+00
66  6.5000000000000E-01  5.0656302148717E-02  1.5479915774256E+00
67  6.6000000000000E-01 -1.1072057429988E-02  1.5766179754311E+00
68  6.7000000000000E-01 -7.1264255029314E-02  1.6028616019041E+00
69  6.8000000000000E-01 -1.2965493786879E-01  1.6263609669931E+00
70  6.9000000000000E-01 -1.8598017899485E-01  1.6467450690945E+00
71  7.0000000000000E-01 -2.3998002443290E-01  1.6636390475760E+00
72  7.1000000000000E-01 -2.9140114757235E-01  1.6766701759261E+00
73  7.2000000000000E-01 -3.3999957264048E-01  1.6854741008255E+00
74  7.3000000000000E-01 -3.8554342689678E-01  1.6897012265930E+00
75  7.4000000000000E-01 -4.2781567959272E-01  1.6890231400222E+00
76  7.5000000000000E-01 -4.6661682482700E-01  1.6831389678927E+00
77  7.6000000000000E-01 -5.0176746520325E-01  1.6717815584511E+00
78  7.7000000000000E-01 -5.3311075368767E-01  1.6547233789900E+00
79  7.8000000000000E-01 -5.6051465225912E-01  1.6317820242668E+00
80  7.9000000000000E-01 -5.8387396784056E-01  1.6028252349148E+00
81  8.0000000000000E-01 -6.0311212857369E-01  1.5677753311240E+00
82  8.1000000000000E-01 -6.1818266671462E-01  1.5266129746482E+00
83  8.2000000000000E-01 -6.2907037824410E-01  1.4793801815061E+00
84  8.3000000000000E-01 -6.3579213364450E-01  1.4261825184492E+00
85  8.4000000000000E-01 -6.3839731913447E-01  1.3671904282180E+00
86  8.5000000000000E-01 -6.3696789289724E-01  1.3026396416074E+00
87  8.6000000000000E-01 -6.3161804640864E-01  1.2328306482080E+00
88  8.7000000000000E-01 -6.2249346678077E-01  1.1581272121804E+00
89  8.8000000000000E-01 -6.0977020199400E-01  1.0789539342993E+00
90  8.9000000000000E-01 -5.9365313689889E-01  9.9579287655682E-01
91  9.0000000000000E-01 -5.7437409383428E-01  9.0917928057825E-01
92  9.1000000000000E-01 -5.5218957753087E-01  8.1969642574520E-01
93  9.2000000000000E-01 -5.2737818955499E-01  7.2796968698857E-01
94  9.3000000000000E-01 -5.0023774280286E-01  6.3465986548047E-01
95  9.4000000000000E-01 -4.7108211139254E-01  5.4045587768924E-01
96  9.5000000000000E-01 -4.4023785563675E-01  4.4606689925964E-01
97  9.6000000000000E-01 -4.0804066554011E-01  3.5221406974938E-01
98  9.7000000000000E-01 -3.7483166938228E-01  2.5962187222374E-01
99  9.8000000000000E-01 -3.4095365637141E-01  1.6900930794704E-01
100  9.9000000000000E-01 -3.0674726401144E-01  8.1080990738993E-02
101  1.0000000000000E+00 -2.7254718174328E-01 -3.4817119697616E-03
102  1.0100000000000E+00 -2.3867842251325E-01 -8.4029363934900E-02
103  1.0200000000000E+00 -2.0545271319756E-01 -1.5995284494934E-01
104  1.0300000000000E+00 -1.7316505330303E-01 -2.3069131356040E-01
105  1.0400000000000E+00 -1.4209048909302E-01 -2.9573963099699E-01
106  1.0500000000000E+00 -1.1248114700459E-01 -3.5465513771918E-01
107  1.0600000000000E+00 -8.4563566952047E-02 -4.0706368206855E-01
108  1.0700000000000E+00 -5.8536371068274E-02 -4.5266481298480E-01
109  1.0800000000000E+00 -3.4568298796139E-02 -4.9123606026976E-01
110  1.0900000000000E+00 -1.2796633577298E-02 -5.2263623995953E-01
111  1.1000000000000E+00  6.6739599542611E-03 -5.4680773815084E-01
112  1.1100000000000E+00  2.3772174646801E-02 -5.6377773978199E-01
113  1.1200000000000E+00  3.8460369774725E-02 -5.7365838889319E-01
114  1.1300000000000E+00  5.0734450258252E-02 -5.7664588088557E-01
115  1.1400000000000E+00  6.0623323978924E-02 -5.7301850681280E-01
116  1.1500000000000E+00  6.8187949968700E-02 -5.6313368212602E-01
117  1.1600000000000E+00  7.3519998901503E-02 -5.4742401391953E-01
118  1.1700000000000E+00  7.6740154532592E-02 -5.2639248007489E-01
119  1.1800000000000E+00  7.7996089238923E-02 -5.0060680253239E-01
120  1.1900000000000E+00  7.7460061831196E-02 -4.7069284398140E-01
121  1.2000000000000E+00  7.5326557396549E-02 -4.3732826577122E-01
122  1.2100000000000E+00  7.1809368091372E-02 -4.0123461943258E-01
123  1.2200000000000E+00  6.7135980548364E-02 -3.6316126391765E-01
124  1.2300000000000E+00  6.1541473887964E-02 -3.2386825205783E-01
125  1.2400000000000E+00  5.5262910669856E-02 -2.8411101531981E-01
126  1.2500000000000E+00  4.8535932812457E-02 -2.4463195782409E-01
127  1.2600000000000E+00  4.1590834295701E-02 -2.0615040245245E-01
128  1.2700000000000E+00  3.4648842016048E-02 -1.6935313735449E-01
129  1.2800000000000E+00  2.7918541439692E-02 -1.3488533520672E-01
130  1.2900000000000E+00  2.1592529043598E-02 -1.0334206434185E-01
131  1.3000000000000E+00  1.5844324683234E-02 -7.5260465809880E-02
132  1.3100000000000E+00  1.0826995444777E-02 -5.1119254441454E-02
133  1.3200000000000E+00  6.6657735386496E-03 -3.1309499042005E-02
134  1.3300000000000E+00  3.4410414355266E-03 -1.6061602843058E-02
135  1.3400000000000E+00  1.2960956229530E-03 -5.9392953092762E-03
136  1.3500000000000E+00  2.6054450593960E-04 -1.0368603084278E-03
137  1.3600000000000E+00 -3.2621566923019E-05  2.8493430892763E-04
138  1.3700000000000E+00 -8.9093899141464E-06  5.4742913395408E-05
139  1.3800000000000E+00  1.6477778452742E-05 -9.6071545890376E-05
140  1.3900000000000E+00 -1.2613159090722E-06  8.0242443167933E-06
141  1.4000000000000E+00 -2.0277582452128E-06  1.2538138872844E-05
142  1.4100000000000E+00 -1.2404542027779E-07  1.2636100184857E-07
143  1.4200000000000E+00 -3.1482167998335E-08  3.2069852153556E-08
144  1.4300000000000E+00  0.0000000000000E+00  0.0000000000000E+00
145  1.4400000000000E+00  0.0000000000000E+00  0.0000000000000E+00
146  1.4500000000000E+00  0.0000000000000E+00  0.0000000000000E+00
147  1.4600000000000E+00  0.0000000000000E+00  0.0000000000000E+00
148  1.4700000000000E+00  0.0000000000000E+00  0.0000000000000E+00
149  1.4800000000000E+00  0.0000000000000E+00  0.0000000000000E+00
150  1.4900000000000E+00  0.0000000000000E+00  0.0000000000000E+00
151  1.5000000000000E+00  0.0000000000000E+00  0.0000000000000E+00
152  1.5100000000000E+00  0.0000000000000E+00  0.0000000000000E+00
153  1.5200000000000E+00  0.0000000000000E+00  0.0000000000000E+00
154  1.5300000000000E+00  0.0000000000000E+00  0.0000000000000E+00
155  1.5400000000000E+00  0.0000000000000E+00  0.0000000000000E+00
156  1.5500000000000E+00  0.0000000000000E+00  0.0000000000000E+00
157  1.5600000000000E+00  0.0000000000000E+00  0.0000000000000E+00
158  1.5700000000000E+00  0.0000000000000E+00  0.0000000000000E+00
159  1.5800000000000E+00  0.0000000000000E+00  0.0000000000000E+00
160  1.5900000000000E+00  0.0000000000000E+00  0.0000000000000E+00
161  1.6000000000000E+00  0.0000000000000E+00  0.0000000000000E+00
162  1.6100000000000E+00  0.0000000000000E+00  0.0000000000000E+00
163  1.6200000000000E+00  0.0000000000000E+00  0.0000000000000E+00
164  1.6300000000000E+00  0.0000000000000E+00  0.0000000000000E+00
165  1.6400000000000E+00  0.0000000000000E+00  0.0000000000000E+00
166  1.6500000000000E+00  0.0000000000000E+00  0.0000000000000E+00
167  1.6600000000000E+00  0.0000000000000E+00  0.0000000000000E+00
168  1.6700000000000E+00  0.0000000000000E+00  0.0000000000000E+00
169  1.6800000000000E+00  0.0000000000000E+00  0.0000000000000E+00
170  1.6900000000000E+00  0.0000000000000E+00  0.0000000000000E+00
171  1.7000000000000E+00  0.0000000000000E+00  0.0000000000000E+00
172  1.7100000000000E+00  0.0000000000000E+00  0.0000000000000E+00
173  1.7200000000000E+00  0.0000000000000E+00  0.0000000000000E+00
174  1.7300000000000E+00  0.0000000000000E+00  0.0000000000000E+00
175  1.7400000000000E+00  0.0000000000000E+00  0.0000000000000E+00
176  1.7500000000000E+00  0.0000000000000E+00  0.0000000000000E+00
177  1.7600000000000E+00  0.0000000000000E+00  0.0000000000000E+00
178  1.7700000000000E+00  0.0000000000000E+00  0.0000000000000E+00
179  1.7800000000000E+00  0.0000000000000E+00  0.0000000000000E+00
180  1.7900000000000E+00  0.0000000000000E+00  0.0000000000000E+00
181  1.8000000000000E+00  0.0000000000000E+00  0.0000000000000E+00
182  1.8100000000000E+00  0.0000000000000E+00  0.0000000000000E+00
183  1.8200000000000E+00  0.0000000000000E+00  0.0000000000000E+00
184  1.8300000000000E+00  0.0000000000000E+00  0.0000000000000E+00
185  1.8400000000000E+00  0.0000000000000E+00  0.0000000000000E+00
186  1.8500000000000E+00  0.0000000000000E+00  0.0000000000000E+00
187  1.8600000000000E+00  0.0000000000000E+00  0.0000000000000E+00
188  1.8700000000000E+00  0.0000000000000E+00  0.0000000000000E+00
189  1.8800000000000E+00  0.0000000000000E+00  0.0000000000000E+00
190  1.8900000000000E+00  0.0000000000000E+00  0.0000000000000E+00
191  1.9000000000000E+00  0.0000000000000E+00  0.0000000000000E+00
192  1.9100000000000E+00  0.0000000000000E+00  0.0000000000000E+00
193  1.9200000000000E+00  0.0000000000000E+00  0.0000000000000E+00
194  1.9300000000000E+00  0.0000000000000E+00  0.0000000000000E+00
195  1.9400000000000E+00  0.0000000000000E+00  0.0000000000000E+00
196  1.9500000000000E+00  0.0000000000000E+00  0.0000000000000E+00
197  1.9600000000000E+00  0.0000000000000E+00  0.0000000000000E+00
198  1.9700000000000E+00  0.0000000000000E+00  0.0000000000000E+00
199  1.9800000000000E+00  0.0000000000000E+00  0.0000000000000E+00
200  1.9900000000000E+00  0.0000000000000E+00  0.0000000000000E+00
201  2.0000000000000E+00  0.0000000000000E+00  0.0000000000000E+00
202  2.0100000000000E+00  0.0000000000000E+00  0.0000000000000E+00
203  2.0200000000000E+00  0.0000000000000E+00  0.0000000000000E+00
204  2.0300000000000E+00  0.0000000000000E+00  0.0000000000000E+00
205  2.0400000000000E+00  0.0000000000000E+00  0.0000000000000E+00
206  2.0500000000000E+00  0.0000000000000E+00  0.0000000000000E+00
207  2.0600000000000E+00  0.0000000000000E+00  0.0000000000000E+00
208  2.0700000000000E+00  0.0000000000000E+00  0.0000000000000E+00
209  2.0800000000000E+00  0.0000000000000E+00  0.0000000000000E+00
210  2.0900000000000E+00  0.0000000000000E+00  0.0000000000000E+00
211  2.1000000000000E+00  0.0000000000000E+00  0.0000000000000E+00
212  2.1100000000000E+00  0.0000000000000E+00  0.0000000000000E+00
213  2.1200000000000E+00  0.0000000000000E+00  0.0000000000000E+00
214  2.1300000000000E+00  0.0000000000000E+00  0.0000000000000E+00
215  2.1400000000000E+00  0.0000000000000E+00  0.0000000000000E+00
216  2.1500000000000E+00  0.0000000000000E+00  0.0000000000000E+00
217  2.1600000000000E+00  0.0000000000000E+00  0.0000000000000E+00
218  2.1700000000000E+00  0.0000000000000E+00  0.0000000000000E+00
219  2.1800000000000E+00  0.0000000000000E+00  0.0000000000000E+00
220  2.1900000000000E+00  0.0000000000000E+00  0.0000000000000E+00
221  2.2000000000000E+00  0.0000000000000E+00  0.0000000000000E+00
222  2.2100000000000E+00  0.0000000000000E+00  0.0000000000000E+00
223  2.2200000000000E+00  0.0000000000000E+00  0.0000000000000E+00
224  2.2300000000000E+00  0.0000000000000E+00  0.0000000000000E+00
225  2.2400000000000E+00  0.0000000000000E+00  0.0000000000000E+00
226  2.2500000000000E+00  0.0000000000000E+00  0.0000000000000E+00
227  2.2600000000000E+00  0.0000000000000E+00  0.0000000000000E+00
228  2.2700000000000E+00  0.0000000000000E+00  0.0000000000000E+00
229  2.2800000000000E+00  0.0000000000000E+00  0.0000000000000E+00
230  2.2900000000000E+00  0.0000000000000E+00  0.0000000000000E+00
231  2.3000000000000E+00  0.0000000000000E+00  0.0000000000000E+00
232  2.3100000000000E+00  0.0000000000000E+00  0.0000000000000E+00
233  2.3200000000000E+00  0.0000000000000E+00  0.0000000000000E+00
234  2.3300000000000E+00  0.0000000000000E+00  0.0000000000000E+00
235  2.3400000000000E+00  0.0000000000000E+00  0.0000000000000E+00
236  2.3500000000000E+00  0.0000000000000E+00  0.0000000000000E+00
237  2.3600000000000E+00  0.0000000000000E+00  0.0000000000000E+00
238  2.3700000000000E+00  0.0000000000000E+00  0.0000000000000E+00
239  2.3800000000000E+00  0.0000000000000E+00  0.0000000000000E+00
240  2.3900000000000E+00  0.0000000000000E+00  0.0000000000000E+00
241  2.4000000000000E+00  0.0000000000000E+00  0.0000000000000E+00
242  2.4100000000000E+00  0.0000000000000E+00  0.0000000000000E+00
243  2.4200000000000E+00  0.0000000000000E+00  0.0000000000000E+00
244  2.4300000000000E+00  0.0000000000000E+00  0.0000000000000E+00
245  2.4400000000000E+00  0.0000000000000E+00  0.0000000000000E+00
246  2.4500000000000E+00  0.0000000000000E+00  0.0000000000000E+00
247  2.4600000000000E+00  0.0000000000000E+00  0.0000000000000E+00
248  2.4700000000000E+00  0.0000000000000E+00  0.0000000000000E+00
249  2.4800000000000E+00  0.0000000000000E+00  0.0000000000000E+00
250  2.4900000000000E+00  0.0000000000000E+00  0.0000000000000E+00
251  2.5000000000000E+00  0.0000000000000E+00  0.0000000000000E+00
252  2.5100000000000E+00  0.0000000000000E+00  0.0000000000000E+00
253  2.5200000000000E+00  0.0000000000000E+00  0.0000000000000E+00
254  2.5300000000000E+00  0.0000000000000E+00  0.0000000000000E+00
255  2.5400000000000E+00  0.0000000000000E+00  0.0000000000000E+00
256  2.5500000000000E+00  0.0000000000000E+00  0.0000000000000E+00
257  2.5600000000000E+00  0.0000000000000E+00  0.0000000000000E+00
258  2.5700000000000E+00  0.0000000000000E+00  0.0000000000000E+00
259  2.5800000000000E+00  0.0000000000000E+00  0.0000000000000E+00
260  2.5900000000000E+00  0.0000000000000E+00  0.0000000000000E+00
261  2.6000000000000E+00  0.0000000000000E+00  0.0000000000000E+00
262  2.6100000000000E+00  0.0000000000000E+00  0.0000000000000E+00
263  2.6200000000000E+00  0.0000000000000E+00  0.0000000000000E+00
264  2.6300000000000E+00  0.0000000000000E+00  0.0000000000000E+00
265  2.6400000000000E+00  0.0000000000000E+00  0.0000000000000E+00
266  2.6500000000000E+00  0.0000000000000E+00  0.0000000000000E+00
267  2.6600000000000E+00  0.0000000000000E+00  0.0000000000000E+00
268  2.6700000000000E+00  0.0000000000000E+00  0.0000000000000E+00
269  2.6800000000000E+00  0.0000000000000E+00  0.0000000000000E+00
270  2.6900000000000E+00  0.0000000000000E+00  0.0000000000000E+00
271  2.7000000000000E+00  0.0000000000000E+00  0.0000000000000E+00
272  2.7100000000000E+00  0.0000000000000E+00  0.0000000000000E+00
273  2.7200000000000E+00  0.0000000000000E+00  0.0000000000000E+00
274  2.7300000000000E+00  0.0000000000000E+00  0.0000000000000E+00
275  2.7400000000000E+00  0.0000000000000E+00  0.0000000000000E+00
276  2.7500000000000E+00  0.0000000000000E+00  0.0000000000000E+00
277  2.7600000000000E+00  0.0000000000000E+00  0.0000000000000E+00
278  2.7700000000000E+00  0.0000000000000E+00  0.0000000000000E+00
279  2.7800000000000E+00  0.0000000000000E+00  0.0000000000000E+00
280  2.7900000000000E+00  0.0000000000000E+00  0.0000000000000E+00
281  2.8000000000000E+00  0.0000000000000E+00  0.0000000000000E+00
282  2.8100000000000E+00  0.0000000000000E+00  0.0000000000000E+00
283  2.8200000000000E+00  0.0000000000000E+00  0.0000000000000E+00
284  2.8300000000000E+00  0.0000000000000E+00  0.0000000000000E+00
285  2.8400000000000E+00  0.0000000000000E+00  0.0000000000000E+00
286  2.8500000000000E+00  0.0000000000000E+00  0.0000000000000E+00
287  2.8600000000000E+00  0.0000000000000E+00  0.0000000000000E+00
288  2.8700000000000E+00  0.0000000000000E+00  0.0000000000000E+00
289  2.8800000000000E+00  0.0000000000000E+00  0.0000000000000E+00
290  2.8900000000000E+00  0.0000000000000E+00  0.0000000000000E+00
291  2.9000000000000E+00  0.0000000000000E+00  0.0000000000000E+00
292  2.9100000000000E+00  0.0000000000000E+00  0.0000000000000E+00
293  2.9200000000000E+00  0.0000000000000E+00  0.0000000000000E+00
294  2.9300000000000E+00  0.0000000000000E+00  0.0000000000000E+00
295  2.9400000000000E+00  0.0000000000000E+00  0.0000000000000E+00
296  2.9500000000000E+00  0.0000000000000E+00  0.0000000000000E+00
297  2.9600000000000E+00  0.0000000000000E+00  0.0000000000000E+00
298  2.9700000000000E+00  0.0000000000000E+00  0.0000000000000E+00
299  2.9800000000000E+00  0.0000000000000E+00  0.0000000000000E+00
300  2.9900000000000E+00  0.0000000000000E+00  0.0000000000000E+00
301  3.0000000000000E+00  0.0000000000000E+00  0.0000000000000E+00
302  3.0100000000000E+00  0.0000000000000E+00  0.0000000000000E+00
303  3.0200000000000E+00  0.0000000000000E+00  0.0000000000000E+00
304  3.0300000000000E+00  0.0000000000000E+00  0.0000000000000E+00
305  3.0400000000000E+00  0.0000000000000E+00  0.0000000000000E+00
306  3.0500000000000E+00  0.0000000000000E+00  0.0000000000000E+00
307  3.0600000000000E+00  0.0000000000000E+00  0.0000000000000E+00
308  3.0700000000000E+00  0.0000000000000E+00  0.0000000000000E+00
309  3.0800000000000E+00  0.0000000000000E+00  0.0000000000000E+00
310  3.0900000000000E+00  0.0000000000000E+00  0.0000000000000E+00
311  3.1000000000000E+00  0.0000000000000E+00  0.0000000000000E+00
312  3.1100000000000E+00  0.0000000000000E+00  0.0000000000000E+00
313  3.1200000000000E+00  0.0000000000000E+00  0.0000000000000E+00
314  3.1300000000000E+00  0.0000000000000E+00  0.0000000000000E+00
315  3.1400000000000E+00  0.0000000000000E+00  0.0000000000000E+00
316  3.1500000000000E+00  0.0000000000000E+00  0.0000000000000E+00
317  3.1600000000000E+00  0.0000000000000E+00  0.0000000000000E+00
318  3.1700000000000E+00  0.0000000000000E+00  0.0000000000000E+00
319  3.1800000000000E+00  0.0000000000000E+00  0.0000000000000E+00
320  3.1900000000000E+00  0.0000000000000E+00  0.0000000000000E+00
321  3.2000000000000E+00  0.0000000000000E+00  0.0000000000000E+00
322  3.2100000000000E+00  0.0000000000000E+00  0.0000000000000E+00
323  3.2200000000000E+00  0.0000000000000E+00  0.0000000000000E+00
324  3.2300000000000E+00  0.0000000000000E+00  0.0000000000000E+00
325  3.2400000000000E+00  0.0000000000000E+00  0.0000000000000E+00
326  3.2500000000000E+00  0.0000000000000E+00  0.0000000000000E+00
327  3.2600000000000E+00  0.0000000000000E+00  0.0000000000000E+00
328  3.2700000000000E+00  0.0000000000000E+00  0.0000000000000E+00
329  3.2800000000000E+00  0.0000000000000E+00  0.0000000000000E+00
330  3.2900000000000E+00  0.0000000000000E+00  0.0000000000000E+00
331  3.3000000000000E+00  0.0000000000000E+00  0.0000000000000E+00
332  3.3100000000000E+00  0.0000000000000E+00  0.0000000000000E+00
333  3.3200000000000E+00  0.0000000000000E+00  0.0000000000000E+00
334  3.3300000000000E+00  0.0000000000000E+00  0.0000000000000E+00
335  3.3400000000000E+00  0.0000000000000E+00  0.0000000000000E+00
336  3.3500000000000E+00  0.0000000000000E+00  0.0000000000000E+00
337  3.3600000000000E+00  0.0000000000000E+00  0.0000000000000E+00
338  3.3700000000000E+00  0.0000000000000E+00  0.0000000000000E+00
339  3.3800000000000E+00  0.0000000000000E+00  0.0000000000000E+00
340  3.3900000000000E+00  0.0000000000000E+00  0.0000000000000E+00
341  3.4000000000000E+00  0.0000000000000E+00  0.0000000000000E+00
342  3.4100000000000E+00  0.0000000000000E+00  0.0000000000000E+00
343  3.4200000000000E+00  0.0000000000000E+00  0.0000000000000E+00
344  3.4300000000000E+00  0.0000000000000E+00  0.0000000000000E+00
345  3.4400000000000E+00  0.0000000000000E+00  0.0000000000000E+00
346  3.4500000000000E+00  0.0000000000000E+00  0.0000000000000E+00
347  3.4600000000000E+00  0.0000000000000E+00  0.0000000000000E+00
348  3.4700000000000E+00  0.0000000000000E+00  0.0000000000000E+00
349  3.4800000000000E+00  0.0000000000000E+00  0.0000000000000E+00
350  3.4900000000000E+00  0.0000000000000E+00  0.0000000000000E+00
351  3.5000000000000E+00  0.0000000000000E+00  0.0000000000000E+00
352  3.5100000000000E+00  0.0000000000000E+00  0.0000000000000E+00
353  3.5200000000000E+00  0.0000000000000E+00  0.0000000000000E+00
354  3.5300000000000E+00  0.0000000000000E+00  0.0000000000000E+00
355  3.5400000000000E+00  0.0000000000000E+00  0.0000000000000E+00
356  3.5500000000000E+00  0.0000000000000E+00  0.0000000000000E+00
357  3.5600000000000E+00  0.0000000000000E+00  0.0000000000000E+00
358  3.5700000000000E+00  0.0000000000000E+00  0.0000000000000E+00
359  3.5800000000000E+00  0.0000000000000E+00  0.0000000000000E+00
360  3.5900000000000E+00  0.0000000000000E+00  0.0000000000000E+00
361  3.6000000000000E+00  0.0000000000000E+00  0.0000000000000E+00
362  3.6100000000000E+00  0.0000000000000E+00  0.0000000000000E+00
363  3.6200000000000E+00  0.0000000000000E+00  0.0000000000000E+00
364  3.6300000000000E+00  0.0000000000000E+00  0.0000000000000E+00
365  3.6400000000000E+00  0.0000000000000E+00  0.0000000000000E+00
366  3.6500000000000E+00  0.0000000000000E+00  0.0000000000000E+00
367  3.6600000000000E+00  0.0000000000000E+00  0.0000000000000E+00
368  3.6700000000000E+00  0.0000000000000E+00  0.0000000000000E+00
369  3.6800000000000E+00  0.0000000000000E+00  0.0000000000000E+00
370  3.6900000000000E+00  0.0000000000000E+00  0.0000000000000E+00
371  3.7000000000000E+00  0.0000000000000E+00  0.0000000000000E+00
372  3.7100000000000E+00  0.0000000000000E+00  0.0000000000000E+00
373  3.7200000000000E+00  0.0000000000000E+00  0.0000000000000E+00
374  3.7300000000000E+00  0.0000000000000E+00  0.0000000000000E+00
375  3.7400000000000E+00  0.0000000000000E+00  0.0000000000000E+00
376  3.7500000000000E+00  0.0000000000000E+00  0.0000000000000E+00
377  3.7600000000000E+00  0.0000000000000E+00  0.0000000000000E+00
378  3.7700000000000E+00  0.0000000000000E+00  0.0000000000000E+00
379  3.7800000000000E+00  0.0000000000000E+00  0.0000000000000E+00
380  3.7900000000000E+00  0.0000000000000E+00  0.0000000000000E+00
381  3.8000000000000E+00  0.0000000000000E+00  0.0000000000000E+00
382  3.8100000000000E+00  0.0000000000000E+00  0.0000000000000E+00
383  3.8200000000000E+00  0.0000000000000E+00  0.0000000000000E+00
384  3.8300000000000E+00  0.0000000000000E+00  0.0000000000000E+00
385  3.8400000000000E+00  0.0000000000000E+00  0.0000000000000E+00
386  3.8500000000000E+00  0.0000000000000E+00  0.0000000000000E+00
387  3.8600000000000E+00  0.0000000000000E+00  0.0000000000000E+00
388  3.8700000000000E+00  0.0000000000000E+00  0.0000000000000E+00
389  3.8800000000000E+00  0.0000000000000E+00  0.0000000000000E+00
390  3.8900000000000E+00  0.0000000000000E+00  0.0000000000000E+00
391  3.9000000000000E+00  0.0000000000000E+00  0.0000000000000E+00
392  3.9100000000000E+00  0.0000000000000E+00  0.0000000000000E+00
393  3.9200000000000E+00  0.0000000000000E+00  0.0000000000000E+00
394  3.9300000000000E+00  0.0000000000000E+00  0.0000000000000E+00
395  3.9400000000000E+00  0.0000000000000E+00  0.0000000000000E+00
396  3.9500000000000E+00  0.0000000000000E+00  0.0000000000000E+00
397  3.9600000000000E+00  0.0000000000000E+00  0.0000000000000E+00
398  3.9700000000000E+00  0.0000000000000E+00  0.0000000000000E+00
399  3.9800000000000E+00  0.0000000000000E+00  0.0000000000000E+00
400  3.9900000000000E+00  0.0000000000000E+00  0.0000000000000E+00
401  4.0000000000000E+00  0.0000000000000E+00  0.0000000000000E+00
402  4.0100000000000E+00  0.0000000000000E+00  0.0000000000000E+00
403  4.0200000000000E+00  0.0000000000000E+00  0.0000000000000E+00
404  4.0300000000000E+00  0.0000000000000E+00  0.0000000000000E+00
405  4.0400000000000E+00  0.0000000000000E+00  0.0000000000000E+00
406  4.0500000000000E+00  0.0000000000000E+00  0.0000000000000E+00
407  4.0600000000000E+00  0.0000000000000E+00  0.0000000000000E+00
408  4.0700000000000E+00  0.0000000000000E+00  0.0000000000000E+00
409  4.0800000000000E+00  0.0000000000000E+00  0.0000000000000E+00
410  4.0900000000000E+00  0.0000000000000E+00  0.0000000000000E+00
411  4.1000000000000E+00  0.0000000000000E+00  0.0000000000000E+00
412  4.1100000000000E+00  0.0000000000000E+00  0.0000000000000E+00
413  4.1200000000000E+00  0.0000000000000E+00  0.0000000000000E+00
414  4.1300000000000E+00  0.0000000000000E+00  0.0000000000000E+00
415  4.1400000000000E+00  0.0000000000000E+00  0.0000000000000E+00
416  4.1500000000000E+00  0.0000000000000E+00  0.0000000000000E+00
417  4.1600000000000E+00  0.0000000000000E+00  0.0000000000000E+00
418  4.1700000000000E+00  0.0000000000000E+00  0.0000000000000E+00
419  4.1800000000000E+00  0.0000000000000E+00  0.0000000000000E+00
420  4.1900000000000E+00  0.0000000000000E+00  0.0000000000000E+00
421  4.2000000000000E+00  0.0000000000000E+00  0.0000000000000E+00
422  4.2100000000000E+00  0.0000000000000E+00  0.0000000000000E+00
423  4.2200000000000E+00  0.0000000000000E+00  0.0000000000000E+00
424  4.2300000000000E+00  0.0000000000000E+00  0.0000000000000E+00
425  4.2400000000000E+00  0.0000000000000E+00  0.0000000000000E+00
426  4.2500000000000E+00  0.0000000000000E+00  0.0000000000000E+00
427  4.2600000000000E+00  0.0000000000000E+00  0.0000000000000E+00
428  4.2700000000000E+00  0.0000000000000E+00  0.0000000000000E+00
429  4.2800000000000E+00  0.0000000000000E+00  0.0000000000000E+00
430  4.2900000000000E+00  0.0000000000000E+00  0.0000000000000E+00
431  4.3000000000000E+00  0.0000000000000E+00  0.0000000000000E+00
432  4.3100000000000E+00  0.0000000000000E+00  0.0000000000000E+00
433  4.3200000000000E+00  0.0000000000000E+00  0.0000000000000E+00
434  4.3300000000000E+00  0.0000000000000E+00  0.0000000000000E+00
435  4.3400000000000E+00  0.0000000000000E+00  0.0000000000000E+00
436  4.3500000000000E+00  0.0000000000000E+00  0.0000000000000E+00
437  4.3600000000000E+00  0.0000000000000E+00  0.0000000000000E+00
438  4.3700000000000E+00  0.0000000000000E+00  0.0000000000000E+00
439  4.3800000000000E+00  0.0000000000000E+00  0.0000000000000E+00
440  4.3900000000000E+00  0.0000000000000E+00  0.0000000000000E+00
441  4.4000000000000E+00  0.0000000000000E+00  0.0000000000000E+00
442  4.4100000000000E+00  0.0000000000000E+00  0.0000000000000E+00
443  4.4200000000000E+00  0.0000000000000E+00  0.0000000000000E+00