Ne    ONCVPSP-3.2.3.1  r_core=   1.31204   1.70576
10.0000      8.0000      170504    zatom,zion,pspd
8      11   1     4   400     0    pspcod,pspxc,lmax,lloc,mmax,r2well
3.99000000  0.00000000  0.00000000    rchrg fchrg qchrg
2     2     0     0     0    nproj
1     1           extension_switch
0                         2.3086903121956E+00 -4.7500541339018E-01
1  0.0000000000000E+00  1.2887105826920E-09  5.1213697171981E-10
2  1.0000000000000E-02  7.6676620654870E-02  1.3513938670892E-02
3  2.0000000000000E-02  1.5324089871486E-01  2.7124876871453E-02
4  3.0000000000000E-02  2.2957922499478E-01  4.0928751547201E-02
5  4.0000000000000E-02  3.0557548196718E-01  5.5019386075476E-02
6  5.0000000000000E-02  3.8110985135509E-01  6.9487462349884E-02
7  6.0000000000000E-02  4.5605769491539E-01  8.4419527139550E-02
8  7.0000000000000E-02  5.3028853127850E-01  9.9897043540224E-02
9  8.0000000000000E-02  6.0366513042129E-01  1.1599549782216E-01
10  9.0000000000000E-02  6.7604274576892E-01  1.3278357135051E-01
11  1.0000000000000E-01  7.4726850206625E-01  1.5032238651510E-01
12  1.1000000000000E-01  8.1718095505378E-01  1.6866483476597E-01
13  1.2000000000000E-01  8.8560983665135E-01  1.8785499391908E-01
14  1.3000000000000E-01  9.5237599682483E-01  2.0792764088291E-01
15  1.4000000000000E-01  1.0172915506158E+00  2.2890786487425E-01
16  1.5000000000000E-01  1.0801602359862E+00  2.5081078505080E-01
17  1.6000000000000E-01  1.1407779852038E+00  2.7364137530422E-01
18  1.7000000000000E-01  1.1989337095032E+00  2.9739439774229E-01
19  1.8000000000000E-01  1.2544102937434E+00  3.2205444515705E-01
20  1.9000000000000E-01  1.3069857947770E+00  3.4759609154185E-01
21  2.0000000000000E-01  1.3564348342933E+00  3.7398414849741E-01
22  2.1000000000000E-01  1.4025301740254E+00  4.0117402417027E-01
23  2.2000000000000E-01  1.4450444584649E+00  4.2911218020948E-01
24  2.3000000000000E-01  1.4837521076389E+00  4.5773668112270E-01
25  2.4000000000000E-01  1.5184313400978E+00  4.8697782937376E-01
26  2.5000000000000E-01  1.5488663040894E+00  5.1675887860227E-01
27  2.6000000000000E-01  1.5748492929577E+00  5.4699681647305E-01
28  2.7000000000000E-01  1.5961830191547E+00  5.7760320788926E-01
29  2.8000000000000E-01  1.6126829198927E+00  6.0848508863726E-01
30  2.9000000000000E-01  1.6241794664302E+00  6.3954589898084E-01
31  3.0000000000000E-01  1.6305204482714E+00  6.7068644629476E-01
32  3.1000000000000E-01  1.6315732032044E+00  7.0180588552650E-01
33  3.2000000000000E-01  1.6272267640896E+00  7.3280270610588E-01
34  3.3000000000000E-01  1.6173938936599E+00  7.6357571388520E-01
35  3.4000000000000E-01  1.6020129792949E+00  7.9402499678966E-01
36  3.5000000000000E-01  1.5810497607878E+00  8.2405286308772E-01
37  3.6000000000000E-01  1.5544988655166E+00  8.5356474155074E-01
38  3.7000000000000E-01  1.5223851271582E+00  8.8247003325758E-01
39  3.8000000000000E-01  1.4847646661178E+00  9.1068290540634E-01
40  3.9000000000000E-01  1.4417257121740E+00  9.3812301821632E-01
41  4.0000000000000E-01  1.3933891524327E+00  9.6471617682898E-01
42  4.1000000000000E-01  1.3399087905130E+00  9.9039490103897E-01
43  4.2000000000000E-01  1.2814713059277E+00  1.0150989066936E+00
44  4.3000000000000E-01  1.2182959058321E+00  1.0387754936797E+00
45  4.4000000000000E-01  1.1506336646648E+00  1.0613798365602E+00
46  4.5000000000000E-01  1.0787665506526E+00  1.0828751751092E+00
47  4.6000000000000E-01  1.0030061416626E+00  1.1032329032229E+00
48  4.7000000000000E-01  9.2369203641152E-01  1.1224325559205E+00
49  4.8000000000000E-01  8.4118997055259E-01  1.1404616954009E+00
50  4.9000000000000E-01  7.5588965060515E-01  1.1573156983563E+00
51  5.0000000000000E-01  6.6820232203286E-01  1.1729974479556E+00
52  5.1000000000000E-01  5.7855809097766E-01  1.1875169350850E+00
53  5.2000000000000E-01  4.8740302217281E-01  1.2008907745499E+00
54  5.3000000000000E-01  3.9519603835578E-01  1.2131416429976E+00
55  5.4000000000000E-01  3.0240564904766E-01  1.2242976462897E+00
56  5.5000000000000E-01  2.0950653882588E-01  1.2343916249356E+00
57  5.6000000000000E-01  1.1697604715906E-01  1.2434604069767E+00
58  5.7000000000000E-01  2.5290573482315E-02  1.2515440183766E+00
59  5.8000000000000E-01 -6.5078057569508E-02  1.2586848615156E+00
60  5.9000000000000E-01 -1.5366623498634E-01  1.2649268728110E+00
61  6.0000000000000E-01 -2.4002216801136E-01  1.2703146707615E+00
62  6.1000000000000E-01 -3.2370942425134E-01  1.2748927058676E+00
63  6.2000000000000E-01 -4.0431036328253E-01  1.2787044238835E+00
64  6.3000000000000E-01 -4.8142943051321E-01  1.2817914537253E+00
65  6.4000000000000E-01 -5.5469627720711E-01  1.2841928310848E+00
66  6.5000000000000E-01 -6.2376867410874E-01  1.2859442683958E+00
67  6.6000000000000E-01 -6.8833518803084E-01  1.2870774812492E+00
68  6.7000000000000E-01 -7.4811759303335E-01  1.2876195806933E+00
69  6.8000000000000E-01 -8.0287299043135E-01  1.2875925400649E+00
70  6.9000000000000E-01 -8.5239561479260E-01  1.2870127440976E+00
71  7.0000000000000E-01 -8.9651830627801E-01  1.2858906270583E+00
72  7.1000000000000E-01 -9.3511363311113E-01  1.2842304055756E+00
73  7.2000000000000E-01 -9.6809465161094E-01  1.2820299106630E+00
74  7.3000000000000E-01 -9.9541529503221E-01  1.2792805222096E+00
75  7.4000000000000E-01 -1.0170703863844E+00  1.2759672079451E+00
76  7.5000000000000E-01 -1.0330952744105E+00  1.2720686675757E+00
77  7.6000000000000E-01 -1.0435650959584E+00  1.2675575814635E+00
78  7.7000000000000E-01 -1.0485936719867E+00  1.2624009619032E+00
79  7.8000000000000E-01 -1.0483320484441E+00  1.2565606037335E+00
80  7.9000000000000E-01 -1.0429666971078E+00  1.2499936297433E+00
81  8.0000000000000E-01 -1.0327173951891E+00  1.2426531251016E+00
82  8.1000000000000E-01 -1.0178348060350E+00  1.2344888538637E+00
83  8.2000000000000E-01 -9.9859778653886E-01  1.2254480495137E+00
84  8.3000000000000E-01 -9.7531044988810E-01  1.2154762704934E+00
85  8.4000000000000E-01 -9.4829901497429E-01  1.2045183107649E+00
86  8.5000000000000E-01 -9.1790847615043E-01  1.1925191546634E+00
87  8.6000000000000E-01 -8.8449912900414E-01  1.1794249646287E+00
88  8.7000000000000E-01 -8.4844298940335E-01  1.1651840898710E+00
89  8.8000000000000E-01 -8.1012014424047E-01  1.1497480836341E+00
90  8.9000000000000E-01 -7.6991507303812E-01  1.1330727164709E+00
91  9.0000000000000E-01 -7.2821297987213E-01  1.1151189728480E+00
92  9.1000000000000E-01 -6.8539617491120E-01  1.0958540184522E+00
93  9.2000000000000E-01 -6.4184054426703E-01  1.0752521257787E+00
94  9.3000000000000E-01 -5.9791214579836E-01  1.0532955459391E+00
95  9.4000000000000E-01 -5.5396396702841E-01  1.0299753151325E+00
96  9.5000000000000E-01 -5.1033287943637E-01  1.0052919848720E+00
97  9.6000000000000E-01 -4.6733682106170E-01  9.7925626584981E-01
98  9.7000000000000E-01 -4.2527223672106E-01  9.5188957622514E-01
99  9.8000000000000E-01 -3.8441180210137E-01  9.2322448615382E-01
100  9.9000000000000E-01 -3.4500245465054E-01  8.9330505152090E-01
101  1.0000000000000E+00 -3.0726375061370E-01  8.6218703105640E-01
102  1.0100000000000E+00 -2.7138656372052E-01  8.2993798232645E-01
103  1.0200000000000E+00 -2.3753213702977E-01  7.9663723345799E-01
104  1.0300000000000E+00 -2.0583149519573E-01  7.6237572890322E-01
105  1.0400000000000E+00 -1.7638522033954E-01  7.2725574894353E-01
106  1.0500000000000E+00 -1.4926359028193E-01  6.9139050414416E-01
107  1.0600000000000E+00 -1.2450707360468E-01  6.5490360743398E-01
108  1.0700000000000E+00 -1.0212717187004E-01  6.1792842789654E-01
109  1.0800000000000E+00 -8.2107595074638E-02  5.8060733180816E-01
110  1.0900000000000E+00 -6.4405752602759E-02  5.4309081775654E-01
111  1.1000000000000E+00 -4.8954538159503E-02  5.0553655396113E-01
112  1.1100000000000E+00 -3.5664383448774E-02  4.6810832717798E-01
113  1.1200000000000E+00 -2.4425552381121E-02  4.3097491358149E-01
114  1.1300000000000E+00 -1.5110644466653E-02  3.9430888307194E-01
115  1.1400000000000E+00 -7.5772739540246E-03  3.5828534916379E-01
116  1.1500000000000E+00 -1.6708884648008E-03  3.2308067754994E-01
117  1.1600000000000E+00  2.7723103371596E-03  2.8887116683485E-01
118  1.1700000000000E+00  5.9223829113723E-03  2.5583171538680E-01
119  1.1800000000000E+00  7.9526445819405E-03  2.2413448854036E-01
120  1.1900000000000E+00  9.0366750737872E-03  1.9394760050717E-01
121  1.2000000000000E+00  9.3453846027921E-03  1.6543382516792E-01
122  1.2100000000000E+00  9.0441760342749E-03  1.3874934980836E-01
123  1.2200000000000E+00  8.2902416221448E-03  1.1404258547790E-01
124  1.2300000000000E+00  7.2300308994902E-03  9.1453046941968E-02
125  1.2400000000000E+00  5.9969244974348E-03  7.1110314548307E-02
126  1.2500000000000E+00  4.7091472980928E-03  5.3133089826208E-02
127  1.2600000000000E+00  3.4679498931594E-03  3.7628355046736E-02
128  1.2700000000000E+00  2.3566837420859E-03  2.4695869360885E-02
129  1.2800000000000E+00  1.4368352134430E-03  1.4403477589916E-02
130  1.2900000000000E+00  7.4542863722315E-04  6.7826435584986E-03
131  1.3000000000000E+00  3.3787012082807E-04  2.1055479747750E-03
132  1.3100000000000E+00  1.6762669333875E-04  1.3492387487353E-04
133  1.3200000000000E+00  5.9800904358966E-05 -1.7292322519849E-04
134  1.3300000000000E+00 -6.4994129382311E-06  2.9005981462986E-05
135  1.3400000000000E+00 -5.9847352007070E-06  3.3492134406004E-05
136  1.3500000000000E+00  2.6094459281199E-06 -9.9276118530416E-06
137  1.3600000000000E+00 -1.5246926437519E-08  2.4565395338453E-09
138  1.3700000000000E+00 -3.7335435515042E-07  6.0153745564314E-08
139  1.3800000000000E+00  0.0000000000000E+00  0.0000000000000E+00
140  1.3900000000000E+00  0.0000000000000E+00  0.0000000000000E+00
141  1.4000000000000E+00  0.0000000000000E+00  0.0000000000000E+00
142  1.4100000000000E+00  0.0000000000000E+00  0.0000000000000E+00
143  1.4200000000000E+00  0.0000000000000E+00  0.0000000000000E+00
144  1.4300000000000E+00  0.0000000000000E+00  0.0000000000000E+00
145  1.4400000000000E+00  0.0000000000000E+00  0.0000000000000E+00
146  1.4500000000000E+00  0.0000000000000E+00  0.0000000000000E+00
147  1.4600000000000E+00  0.0000000000000E+00  0.0000000000000E+00
148  1.4700000000000E+00  0.0000000000000E+00  0.0000000000000E+00
149  1.4800000000000E+00  0.0000000000000E+00  0.0000000000000E+00
150  1.4900000000000E+00  0.0000000000000E+00  0.0000000000000E+00
151  1.5000000000000E+00  0.0000000000000E+00  0.0000000000000E+00
152  1.5100000000000E+00  0.0000000000000E+00  0.0000000000000E+00
153  1.5200000000000E+00  0.0000000000000E+00  0.0000000000000E+00
154  1.5300000000000E+00  0.0000000000000E+00  0.0000000000000E+00
155  1.5400000000000E+00  0.0000000000000E+00  0.0000000000000E+00
156  1.5500000000000E+00  0.0000000000000E+00  0.0000000000000E+00
157  1.5600000000000E+00  0.0000000000000E+00  0.0000000000000E+00
158  1.5700000000000E+00  0.0000000000000E+00  0.0000000000000E+00
159  1.5800000000000E+00  0.0000000000000E+00  0.0000000000000E+00
160  1.5900000000000E+00  0.0000000000000E+00  0.0000000000000E+00
161  1.6000000000000E+00  0.0000000000000E+00  0.0000000000000E+00
162  1.6100000000000E+00  0.0000000000000E+00  0.0000000000000E+00
163  1.6200000000000E+00  0.0000000000000E+00  0.0000000000000E+00
164  1.6300000000000E+00  0.0000000000000E+00  0.0000000000000E+00
165  1.6400000000000E+00  0.0000000000000E+00  0.0000000000000E+00
166  1.6500000000000E+00  0.0000000000000E+00  0.0000000000000E+00
167  1.6600000000000E+00  0.0000000000000E+00  0.0000000000000E+00
168  1.6700000000000E+00  0.0000000000000E+00  0.0000000000000E+00
169  1.6800000000000E+00  0.0000000000000E+00  0.0000000000000E+00
170  1.6900000000000E+00  0.0000000000000E+00  0.0000000000000E+00
171  1.7000000000000E+00  0.0000000000000E+00  0.0000000000000E+00
172  1.7100000000000E+00  0.0000000000000E+00  0.0000000000000E+00
173  1.7200000000000E+00  0.0000000000000E+00  0.0000000000000E+00
174  1.7300000000000E+00  0.0000000000000E+00  0.0000000000000E+00
175  1.7400000000000E+00  0.0000000000000E+00  0.0000000000000E+00
176  1.7500000000000E+00  0.0000000000000E+00  0.0000000000000E+00
177  1.7600000000000E+00  0.0000000000000E+00  0.0000000000000E+00
178  1.7700000000000E+00  0.0000000000000E+00  0.0000000000000E+00
179  1.7800000000000E+00  0.0000000000000E+00  0.0000000000000E+00
180  1.7900000000000E+00  0.0000000000000E+00  0.0000000000000E+00
181  1.8000000000000E+00  0.0000000000000E+00  0.0000000000000E+00
182  1.8100000000000E+00  0.0000000000000E+00  0.0000000000000E+00
183  1.8200000000000E+00  0.0000000000000E+00  0.0000000000000E+00
184  1.8300000000000E+00  0.0000000000000E+00  0.0000000000000E+00
185  1.8400000000000E+00  0.0000000000000E+00  0.0000000000000E+00
186  1.8500000000000E+00  0.0000000000000E+00  0.0000000000000E+00
187  1.8600000000000E+00  0.0000000000000E+00  0.0000000000000E+00
188  1.8700000000000E+00  0.0000000000000E+00  0.0000000000000E+00
189  1.8800000000000E+00  0.0000000000000E+00  0.0000000000000E+00
190  1.8900000000000E+00  0.0000000000000E+00  0.0000000000000E+00
191  1.9000000000000E+00  0.0000000000000E+00  0.0000000000000E+00
192  1.9100000000000E+00  0.0000000000000E+00  0.0000000000000E+00
193  1.9200000000000E+00  0.0000000000000E+00  0.0000000000000E+00
194  1.9300000000000E+00  0.0000000000000E+00  0.0000000000000E+00
195  1.9400000000000E+00  0.0000000000000E+00  0.0000000000000E+00
196  1.9500000000000E+00  0.0000000000000E+00  0.0000000000000E+00
197  1.9600000000000E+00  0.0000000000000E+00  0.0000000000000E+00
198  1.9700000000000E+00  0.0000000000000E+00  0.0000000000000E+00
199  1.9800000000000E+00  0.0000000000000E+00  0.0000000000000E+00
200  1.9900000000000E+00  0.0000000000000E+00  0.0000000000000E+00
201  2.0000000000000E+00  0.0000000000000E+00  0.0000000000000E+00
202  2.0100000000000E+00  0.0000000000000E+00  0.0000000000000E+00
203  2.0200000000000E+00  0.0000000000000E+00  0.0000000000000E+00
204  2.0300000000000E+00  0.0000000000000E+00  0.0000000000000E+00
205  2.0400000000000E+00  0.0000000000000E+00  0.0000000000000E+00
206  2.0500000000000E+00  0.0000000000000E+00  0.0000000000000E+00
207  2.0600000000000E+00  0.0000000000000E+00  0.0000000000000E+00
208  2.0700000000000E+00  0.0000000000000E+00  0.0000000000000E+00
209  2.0800000000000E+00  0.0000000000000E+00  0.0000000000000E+00
210  2.0900000000000E+00  0.0000000000000E+00  0.0000000000000E+00
211  2.1000000000000E+00  0.0000000000000E+00  0.0000000000000E+00
212  2.1100000000000E+00  0.0000000000000E+00  0.0000000000000E+00
213  2.1200000000000E+00  0.0000000000000E+00  0.0000000000000E+00
214  2.1300000000000E+00  0.0000000000000E+00  0.0000000000000E+00
215  2.1400000000000E+00  0.0000000000000E+00  0.0000000000000E+00
216  2.1500000000000E+00  0.0000000000000E+00  0.0000000000000E+00
217  2.1600000000000E+00  0.0000000000000E+00  0.0000000000000E+00
218  2.1700000000000E+00  0.0000000000000E+00  0.0000000000000E+00
219  2.1800000000000E+00  0.0000000000000E+00  0.0000000000000E+00
220  2.1900000000000E+00  0.0000000000000E+00  0.0000000000000E+00
221  2.2000000000000E+00  0.0000000000000E+00  0.0000000000000E+00
222  2.2100000000000E+00  0.0000000000000E+00  0.0000000000000E+00
223  2.2200000000000E+00  0.0000000000000E+00  0.0000000000000E+00
224  2.2300000000000E+00  0.0000000000000E+00  0.0000000000000E+00
225  2.2400000000000E+00  0.0000000000000E+00  0.0000000000000E+00
226  2.2500000000000E+00  0.0000000000000E+00  0.0000000000000E+00
227  2.2600000000000E+00  0.0000000000000E+00  0.0000000000000E+00
228  2.2700000000000E+00  0.0000000000000E+00  0.0000000000000E+00
229  2.2800000000000E+00  0.0000000000000E+00  0.0000000000000E+00
230  2.2900000000000E+00  0.0000000000000E+00  0.0000000000000E+00
231  2.3000000000000E+00  0.0000000000000E+00  0.0000000000000E+00
232  2.3100000000000E+00  0.0000000000000E+00  0.0000000000000E+00
233  2.3200000000000E+00  0.0000000000000E+00  0.0000000000000E+00
234  2.3300000000000E+00  0.0000000000000E+00  0.0000000000000E+00
235  2.3400000000000E+00  0.0000000000000E+00  0.0000000000000E+00
236  2.3500000000000E+00  0.0000000000000E+00  0.0000000000000E+00
237  2.3600000000000E+00  0.0000000000000E+00  0.0000000000000E+00
238  2.3700000000000E+00  0.0000000000000E+00  0.0000000000000E+00
239  2.3800000000000E+00  0.0000000000000E+00  0.0000000000000E+00
240  2.3900000000000E+00  0.0000000000000E+00  0.0000000000000E+00
241  2.4000000000000E+00  0.0000000000000E+00  0.0000000000000E+00
242  2.4100000000000E+00  0.0000000000000E+00  0.0000000000000E+00
243  2.4200000000000E+00  0.0000000000000E+00  0.0000000000000E+00
244  2.4300000000000E+00  0.0000000000000E+00  0.0000000000000E+00
245  2.4400000000000E+00  0.0000000000000E+00  0.0000000000000E+00
246  2.4500000000000E+00  0.0000000000000E+00  0.0000000000000E+00
247  2.4600000000000E+00  0.0000000000000E+00  0.0000000000000E+00
248  2.4700000000000E+00  0.0000000000000E+00  0.0000000000000E+00
249  2.4800000000000E+00  0.0000000000000E+00  0.0000000000000E+00
250  2.4900000000000E+00  0.0000000000000E+00  0.0000000000000E+00
251  2.5000000000000E+00  0.0000000000000E+00  0.0000000000000E+00
252  2.5100000000000E+00  0.0000000000000E+00  0.0000000000000E+00
253  2.5200000000000E+00  0.0000000000000E+00  0.0000000000000E+00
254  2.5300000000000E+00  0.0000000000000E+00  0.0000000000000E+00
255  2.5400000000000E+00  0.0000000000000E+00  0.0000000000000E+00
256  2.5500000000000E+00  0.0000000000000E+00  0.0000000000000E+00
257  2.5600000000000E+00  0.0000000000000E+00  0.0000000000000E+00
258  2.5700000000000E+00  0.0000000000000E+00  0.0000000000000E+00
259  2.5800000000000E+00  0.0000000000000E+00  0.0000000000000E+00
260  2.5900000000000E+00  0.0000000000000E+00  0.0000000000000E+00
261  2.6000000000000E+00  0.0000000000000E+00  0.0000000000000E+00
262  2.6100000000000E+00  0.0000000000000E+00  0.0000000000000E+00
263  2.6200000000000E+00  0.0000000000000E+00  0.0000000000000E+00
264  2.6300000000000E+00  0.0000000000000E+00  0.0000000000000E+00
265  2.6400000000000E+00  0.0000000000000E+00  0.0000000000000E+00
266  2.6500000000000E+00  0.0000000000000E+00  0.0000000000000E+00
267  2.6600000000000E+00  0.0000000000000E+00  0.0000000000000E+00
268  2.6700000000000E+00  0.0000000000000E+00  0.0000000000000E+00
269  2.6800000000000E+00  0.0000000000000E+00  0.0000000000000E+00
270  2.6900000000000E+00  0.0000000000000E+00  0.0000000000000E+00
271  2.7000000000000E+00  0.0000000000000E+00  0.0000000000000E+00
272  2.7100000000000E+00  0.0000000000000E+00  0.0000000000000E+00
273  2.7200000000000E+00  0.0000000000000E+00  0.0000000000000E+00
274  2.7300000000000E+00  0.0000000000000E+00  0.0000000000000E+00
275  2.7400000000000E+00  0.0000000000000E+00  0.0000000000000E+00
276  2.7500000000000E+00  0.0000000000000E+00  0.0000000000000E+00
277  2.7600000000000E+00  0.0000000000000E+00  0.0000000000000E+00
278  2.7700000000000E+00  0.0000000000000E+00  0.0000000000000E+00
279  2.7800000000000E+00  0.0000000000000E+00  0.0000000000000E+00
280  2.7900000000000E+00  0.0000000000000E+00  0.0000000000000E+00
281  2.8000000000000E+00  0.0000000000000E+00  0.0000000000000E+00
282  2.8100000000000E+00  0.0000000000000E+00  0.0000000000000E+00
283  2.8200000000000E+00  0.0000000000000E+00  0.0000000000000E+00
284  2.8300000000000E+00  0.0000000000000E+00  0.0000000000000E+00
285  2.8400000000000E+00  0.0000000000000E+00  0.0000000000000E+00
286  2.8500000000000E+00  0.0000000000000E+00  0.0000000000000E+00
287  2.8600000000000E+00  0.0000000000000E+00  0.0000000000000E+00
288  2.8700000000000E+00  0.0000000000000E+00  0.0000000000000E+00
289  2.8800000000000E+00  0.0000000000000E+00  0.0000000000000E+00
290  2.8900000000000E+00  0.0000000000000E+00  0.0000000000000E+00
291  2.9000000000000E+00  0.0000000000000E+00  0.0000000000000E+00
292  2.9100000000000E+00  0.0000000000000E+00  0.0000000000000E+00
293  2.9200000000000E+00  0.0000000000000E+00  0.0000000000000E+00
294  2.9300000000000E+00  0.0000000000000E+00  0.0000000000000E+00
295  2.9400000000000E+00  0.0000000000000E+00  0.0000000000000E+00
296  2.9500000000000E+00  0.0000000000000E+00  0.0000000000000E+00
297  2.9600000000000E+00  0.0000000000000E+00  0.0000000000000E+00
298  2.9700000000000E+00  0.0000000000000E+00  0.0000000000000E+00
299  2.9800000000000E+00  0.0000000000000E+00  0.0000000000000E+00
300  2.9900000000000E+00  0.0000000000000E+00  0.0000000000000E+00
301  3.0000000000000E+00  0.0000000000000E+00  0.0000000000000E+00
302  3.0100000000000E+00  0.0000000000000E+00  0.0000000000000E+00
303  3.0200000000000E+00  0.0000000000000E+00  0.0000000000000E+00
304  3.0300000000000E+00  0.0000000000000E+00  0.0000000000000E+00
305  3.0400000000000E+00  0.0000000000000E+00  0.0000000000000E+00
306  3.0500000000000E+00  0.0000000000000E+00  0.0000000000000E+00
307  3.0600000000000E+00  0.0000000000000E+00  0.0000000000000E+00
308  3.0700000000000E+00  0.0000000000000E+00  0.0000000000000E+00
309  3.0800000000000E+00  0.0000000000000E+00  0.0000000000000E+00
310  3.0900000000000E+00  0.0000000000000E+00  0.0000000000000E+00
311  3.1000000000000E+00  0.0000000000000E+00  0.0000000000000E+00
312  3.1100000000000E+00  0.0000000000000E+00  0.0000000000000E+00
313  3.1200000000000E+00  0.0000000000000E+00  0.0000000000000E+00
314  3.1300000000000E+00  0.0000000000000E+00  0.0000000000000E+00
315  3.1400000000000E+00  0.0000000000000E+00  0.0000000000000E+00
316  3.1500000000000E+00  0.0000000000000E+00  0.0000000000000E+00
317  3.1600000000000E+00  0.0000000000000E+00  0.0000000000000E+00
318  3.1700000000000E+00  0.0000000000000E+00  0.0000000000000E+00
319  3.1800000000000E+00  0.0000000000000E+00  0.0000000000000E+00
320  3.1900000000000E+00  0.0000000000000E+00  0.0000000000000E+00
321  3.2000000000000E+00  0.0000000000000E+00  0.0000000000000E+00
322  3.2100000000000E+00  0.0000000000000E+00  0.0000000000000E+00
323  3.2200000000000E+00  0.0000000000000E+00  0.0000000000000E+00
324  3.2300000000000E+00  0.0000000000000E+00  0.0000000000000E+00
325  3.2400000000000E+00  0.0000000000000E+00  0.0000000000000E+00
326  3.2500000000000E+00  0.0000000000000E+00  0.0000000000000E+00
327  3.2600000000000E+00  0.0000000000000E+00  0.0000000000000E+00
328  3.2700000000000E+00  0.0000000000000E+00  0.0000000000000E+00
329  3.2800000000000E+00  0.0000000000000E+00  0.0000000000000E+00
330  3.2900000000000E+00  0.0000000000000E+00  0.0000000000000E+00
331  3.3000000000000E+00  0.0000000000000E+00  0.0000000000000E+00
332  3.3100000000000E+00  0.0000000000000E+00  0.0000000000000E+00
333  3.3200000000000E+00  0.0000000000000E+00  0.0000000000000E+00
334  3.3300000000000E+00  0.0000000000000E+00  0.0000000000000E+00
335  3.3400000000000E+00  0.0000000000000E+00  0.0000000000000E+00
336  3.3500000000000E+00  0.0000000000000E+00  0.0000000000000E+00
337  3.3600000000000E+00  0.0000000000000E+00  0.0000000000000E+00
338  3.3700000000000E+00  0.0000000000000E+00  0.0000000000000E+00
339  3.3800000000000E+00  0.0000000000000E+00  0.0000000000000E+00
340  3.3900000000000E+00  0.0000000000000E+00  0.0000000000000E+00
341  3.4000000000000E+00  0.0000000000000E+00  0.0000000000000E+00
342  3.4100000000000E+00  0.0000000000000E+00  0.0000000000000E+00
343  3.4200000000000E+00  0.0000000000000E+00  0.0000000000000E+00
344  3.4300000000000E+00  0.0000000000000E+00  0.0000000000000E+00
345  3.4400000000000E+00  0.0000000000000E+00  0.0000000000000E+00
346  3.4500000000000E+00  0.0000000000000E+00  0.0000000000000E+00
347  3.4600000000000E+00  0.0000000000000E+00  0.0000000000000E+00
348  3.4700000000000E+00  0.0000000000000E+00  0.0000000000000E+00
349  3.4800000000000E+00  0.0000000000000E+00  0.0000000000000E+00
350  3.4900000000000E+00  0.0000000000000E+00  0.0000000000000E+00
351  3.5000000000000E+00  0.0000000000000E+00  0.0000000000000E+00
352  3.5100000000000E+00  0.0000000000000E+00  0.0000000000000E+00
353  3.5200000000000E+00  0.0000000000000E+00  0.0000000000000E+00
354  3.5300000000000E+00  0.0000000000000E+00  0.0000000000000E+00
355  3.5400000000000E+00  0.0000000000000E+00  0.0000000000000E+00
356  3.5500000000000E+00  0.0000000000000E+00  0.0000000000000E+00
357  3.5600000000000E+00  0.0000000000000E+00  0.0000000000000E+00
358  3.5700000000000E+00  0.0000000000000E+00  0.0000000000000E+00
359  3.5800000000000E+00  0.0000000000000E+00  0.0000000000000E+00
360  3.5900000000000E+00  0.0000000000000E+00  0.0000000000000E+00
361  3.6000000000000E+00  0.0000000000000E+00  0.0000000000000E+00
362  3.6100000000000E+00  0.0000000000000E+00  0.0000000000000E+00
363  3.6200000000000E+00  0.0000000000000E+00  0.0000000000000E+00
364  3.6300000000000E+00  0.0000000000000E+00  0.0000000000000E+00
365  3.6400000000000E+00  0.0000000000000E+00  0.0000000000000E+00
366  3.6500000000000E+00  0.0000000000000E+00  0.0000000000000E+00
367  3.6600000000000E+00  0.0000000000000E+00  0.0000000000000E+00
368  3.6700000000000E+00  0.0000000000000E+00  0.0000000000000E+00
369  3.6800000000000E+00  0.0000000000000E+00  0.0000000000000E+00
370  3.6900000000000E+00  0.0000000000000E+00  0.0000000000000E+00
371  3.7000000000000E+00  0.0000000000000E+00  0.0000000000000E+00
372  3.7100000000000E+00  0.0000000000000E+00  0.0000000000000E+00
373  3.7200000000000E+00  0.0000000000000E+00  0.0000000000000E+00
374  3.7300000000000E+00  0.0000000000000E+00  0.0000000000000E+00
375  3.7400000000000E+00  0.0000000000000E+00  0.0000000000000E+00
376  3.7500000000000E+00  0.0000000000000E+00  0.0000000000000E+00
377  3.7600000000000E+00  0.0000000000000E+00  0.0000000000000E+00
378  3.7700000000000E+00  0.0000000000000E+00  0.0000000000000E+00
379  3.7800000000000E+00  0.0000000000000E+00  0.0000000000000E+00
380  3.7900000000000E+00  0.0000000000000E+00  0.0000000000000E+00
381  3.8000000000000E+00  0.0000000000000E+00  0.0000000000000E+00
382  3.8100000000000E+00  0.0000000000000E+00  0.0000000000000E+00
383  3.8200000000000E+00  0.0000000000000E+00  0.0000000000000E+00
384  3.8300000000000E+00  0.0000000000000E+00  0.0000000000000E+00
385  3.8400000000000E+00  0.0000000000000E+00  0.0000000000000E+00
386  3.8500000000000E+00  0.0000000000000E+00  0.0000000000000E+00
387  3.8600000000000E+00  0.0000000000000E+00  0.0000000000000E+00
388  3.8700000000000E+00  0.0000000000000E+00  0.0000000000000E+00
389  3.8800000000000E+00  0.0000000000000E+00  0.0000000000000E+00
390  3.8900000000000E+00  0.0000000000000E+00  0.0000000000000E+00
391  3.9000000000000E+00  0.0000000000000E+00  0.0000000000000E+00
392  3.9100000000000E+00  0.0000000000000E+00  0.0000000000000E+00
393  3.9200000000000E+00  0.0000000000000E+00  0.0000000000000E+00
394  3.9300000000000E+00  0.0000000000000E+00  0.0000000000000E+00
395  3.9400000000000E+00  0.0000000000000E+00  0.0000000000000E+00
396  3.9500000000000E+00  0.0000000000000E+00  0.0000000000000E+00
397  3.9600000000000E+00  0.0000000000000E+00  0.0000000000000E+00
398  3.9700000000000E+00  0.0000000000000E+00  0.0000000000000E+00
399  3.9800000000000E+00  0.0000000000000E+00  0.0000000000000E+00
400  3.9900000000000E+00  0.0000000000000E+00  0.0000000000000E+00
1                        -5.1317595693011E+00 -1.6678655587515E+00
1  0.0000000000000E+00 -9.5281324496987E-11  2.8755652026202E-10
2  1.0000000000000E-02  1.3984201008348E-03 -3.6895541814507E-04
3  2.0000000000000E-02  5.5893122099878E-03 -1.4741237636000E-03
4  3.0000000000000E-02  1.2559579040713E-02 -3.3104058593106E-03
5  4.0000000000000E-02  2.2287416147817E-02 -5.8692850684846E-03
6  5.0000000000000E-02  3.4742348668251E-02 -9.1388008354869E-03
7  6.0000000000000E-02  4.9885283137709E-02 -1.3103512743255E-02
8  7.0000000000000E-02  6.7668574755200E-02 -1.7744456171923E-02
9  8.0000000000000E-02  8.8036110562847E-02 -2.3039090930895E-02
10  9.0000000000000E-02  1.1092340909541E-01 -2.8961244508289E-02
11  1.0000000000000E-01  1.3625773713138E-01 -3.5481051833389E-02
12  1.1000000000000E-01  1.6395824424393E-01 -4.2564893676956E-02
13  1.2000000000000E-01  1.9393611590315E-01 -5.0175336017636E-02
14  1.3000000000000E-01  2.2609474592111E-01 -5.8271072877901E-02
15  1.4000000000000E-01  2.6032992905526E-01 -6.6806875277450E-02
16  1.5000000000000E-01  2.9653007459455E-01 -7.5733549063579E-02
17  1.6000000000000E-01  3.3457644174378E-01 -8.4997904454960E-02
18  1.7000000000000E-01  3.7434339759604E-01 -9.4542740176465E-02
19  1.8000000000000E-01  4.1569869843898E-01 -1.0430684506615E-01
20  1.9000000000000E-01  4.5850379507838E-01 -1.1422502000157E-01
21  2.0000000000000E-01  5.0261416278216E-01 -1.2422812292007E-01
22  2.1000000000000E-01  5.4787965634938E-01 -1.3424313959695E-01
23  2.2000000000000E-01  5.9414489069227E-01 -1.4419328269685E-01
24  2.3000000000000E-01  6.4124964718571E-01 -1.5399812142788E-01
25  2.4000000000000E-01  6.8902930588878E-01 -1.6357374390641E-01
26  2.5000000000000E-01  7.3731530357700E-01 -1.7283295408434E-01
27  2.6000000000000E-01  7.8593561734419E-01 -1.8168550480189E-01
28  2.7000000000000E-01  8.3471527333980E-01 -1.9003836821046E-01
29  2.8000000000000E-01  8.8347688000300E-01 -1.9779604446315E-01
30  2.9000000000000E-01  9.3204118494036E-01 -2.0486090919961E-01
31  3.0000000000000E-01  9.8022765437164E-01 -2.1113359995909E-01
32  3.1000000000000E-01  1.0278550738395E+00 -2.1651344124439E-01
33  3.2000000000000E-01  1.0747421686462E+00 -2.2089890753493E-01
34  3.3000000000000E-01  1.1207082422470E+00 -2.2418812311092E-01
35  3.4000000000000E-01  1.1655738305932E+00 -2.2627939710937E-01
36  3.5000000000000E-01  1.2091613701913E+00 -2.2707179178879E-01
37  3.6000000000000E-01  1.2512958774130E+00 -2.2646572153787E-01
38  3.7000000000000E-01  1.2918056363763E+00 -2.2436357972914E-01
39  3.8000000000000E-01  1.3305228925083E+00 -2.2067039009531E-01
40  3.9000000000000E-01  1.3672845487020E+00 -2.1529447889842E-01
41  4.0000000000000E-01  1.4019328608009E+00 -2.0814816377481E-01
42  4.1000000000000E-01  1.4343161289777E+00 -1.9914845477610E-01
43  4.2000000000000E-01  1.4642893814288E+00 -1.8821776279231E-01