K     ONCVPSP-3.2.3.1  r_core=   1.36296   1.46408   1.61068
19.0000      9.0000      170504    zatom,zion,pspd
8      11   2     4   400     0    pspcod,pspxc,lmax,lloc,mmax,r2well
3.99000000  5.00000000  0.00000000    rchrg fchrg qchrg
2     2     2     0     0    nproj
1     1           extension_switch
0                         1.0871122602712E+01  8.0670373953839E-01
1  0.0000000000000E+00  9.7208185945163E-11  2.3795862502674E-10
2  1.0000000000000E-02  5.8220632466214E-02 -3.2151422123085E-02
3  2.0000000000000E-02  1.1636998987518E-01 -6.4198748671959E-02
4  3.0000000000000E-02  1.7437671456966E-01 -9.6038128388437E-02
5  4.0000000000000E-02  2.3216928596501E-01 -1.2756619612343E-01
6  5.0000000000000E-02  2.8967594474184E-01 -1.5868030964677E-01
7  6.0000000000000E-02  3.4682462375683E-01 -1.8927877913741E-01
8  7.0000000000000E-02  4.0354288779584E-01 -2.1926108720047E-01
9  8.0000000000000E-02  4.5975788419630E-01 -2.4852809749571E-01
10  9.0000000000000E-02  5.1539630624626E-01 -2.7698225035037E-01
11  1.0000000000000E-01  5.7038437112672E-01 -3.0452774406242E-01
12  1.1000000000000E-01  6.2464781400323E-01 -3.3107070097093E-01
13  1.2000000000000E-01  6.7811189969441E-01 -3.5651931777132E-01
14  1.3000000000000E-01  7.3070145314979E-01 -3.8078399997596E-01
15  1.4000000000000E-01  7.8234090976071E-01 -4.0377748085609E-01
16  1.5000000000000E-01  8.3295438630655E-01 -4.2541492564087E-01
17  1.6000000000000E-01  8.8246577310767E-01 -4.4561402218214E-01
18  1.7000000000000E-01  9.3079884771789E-01 -4.6429505971254E-01
19  1.8000000000000E-01  9.7787741024564E-01 -4.8138099771660E-01
20  1.9000000000000E-01  1.0236254401473E+00 -4.9679752729464E-01
21  2.0000000000000E-01  1.0679672740892E+00 -5.1047312771434E-01
22  2.1000000000000E-01  1.1108278042323E+00 -5.2233912111061E-01
23  2.2000000000000E-01  1.1521326960528E+00 -5.3232972850028E-01
24  2.3000000000000E-01  1.1918086245826E+00 -5.4038213042033E-01
25  2.4000000000000E-01  1.2297835277299E+00 -5.4643653556843E-01
26  2.5000000000000E-01  1.2659868751304E+00 -5.5043626082200E-01
27  2.6000000000000E-01  1.3003499507845E+00 -5.5232782592970E-01
28  2.7000000000000E-01  1.3328061475527E+00 -5.5206106600852E-01
29  2.8000000000000E-01  1.3632912714228E+00 -5.4958926473915E-01
30  2.9000000000000E-01  1.3917438533138E+00 -5.4486931083284E-01
31  3.0000000000000E-01  1.4181054660627E+00 -5.3786187994761E-01
32  3.1000000000000E-01  1.4423210441363E+00 -5.2853164376492E-01
33  3.2000000000000E-01  1.4643392035307E+00 -5.1684750740385E-01
34  3.3000000000000E-01  1.4841125592682E+00 -5.0278287575715E-01
35  3.4000000000000E-01  1.5015980378663E+00 -4.8631594868886E-01
36  3.5000000000000E-01  1.5167571821467E+00 -4.6743004434670E-01
37  3.6000000000000E-01  1.5295564457684E+00 -4.4611394912405E-01
38  3.7000000000000E-01  1.5399674749056E+00 -4.2236229206790E-01
39  3.8000000000000E-01  1.5479673745578E+00 -3.9617594078196E-01
40  3.9000000000000E-01  1.5535389570585E+00 -3.6756241513124E-01
41  4.0000000000000E-01  1.5566709704587E+00 -3.3653631432888E-01
42  4.1000000000000E-01  1.5573583045862E+00 -3.0311975229143E-01
43  4.2000000000000E-01  1.5556021727248E+00 -2.6734279549548E-01
44  4.3000000000000E-01  1.5514102670214E+00 -2.2924389697540E-01
45  4.4000000000000E-01  1.5447968859063E+00 -1.8887031957345E-01
46  4.5000000000000E-01  1.5357830320014E+00 -1.4627854110867E-01
47  4.6000000000000E-01  1.5243964791966E+00 -1.0153463377528E-01
48  4.7000000000000E-01  1.5106718077876E+00 -5.4714609828562E-02
49  4.8000000000000E-01  1.4946504067874E+00 -5.9047254708593E-03
50  4.9000000000000E-01  1.4763804427543E+00  4.4798265177047E-02
51  5.0000000000000E-01  1.4559167947069E+00  9.7286914039318E-02
52  5.1000000000000E-01  1.4333209549316E+00  1.5144294878501E-01
53  5.2000000000000E-01  1.4086608957196E+00  2.0713721571779E-01
54  5.3000000000000E-01  1.3820109023012E+00  2.6422970283592E-01
55  5.4000000000000E-01  1.3534513724701E+00  3.2256964944123E-01
56  5.5000000000000E-01  1.3230685836136E+00  3.8199574795729E-01
57  5.6000000000000E-01  1.2909544280756E+00  4.4233644277789E-01
58  5.7000000000000E-01  1.2572061179833E+00  5.0341033002463E-01
59  5.8000000000000E-01  1.2219258608639E+00  5.6502666105094E-01
60  5.9000000000000E-01  1.1852205075588E+00  6.2698595139918E-01
61  6.0000000000000E-01  1.1472011741119E+00  6.8908069571988E-01
62  6.1000000000000E-01  1.1079828394676E+00  7.5109618789780E-01
63  6.2000000000000E-01  1.0676839209520E+00  8.1281144432898E-01
64  6.3000000000000E-01  1.0264258296421E+00  8.7400022696250E-01
65  6.4000000000000E-01  9.8433250783868E-01  9.3443216137907E-01
66  6.5000000000000E-01  9.4152995095491E-01  9.9387394385492E-01
67  6.6000000000000E-01  8.9814571621666E-01  1.0520906300513E+00
68  6.7000000000000E-01  8.5430842063536E-01  1.1088469967164E+00
69  6.8000000000000E-01  8.1014723076765E-01  1.1639089665960E+00
70  6.9000000000000E-01  7.6579134681282E-01  1.2170450856343E+00
71  7.0000000000000E-01  7.2136948362265E-01  1.2680280405360E+00
72  7.1000000000000E-01  6.7700935120859E-01  1.3166362038594E+00
73  7.2000000000000E-01  6.3283713732837E-01  1.3626551930394E+00
74  7.3000000000000E-01  5.8897699471973E-01  1.4058794291071E+00
75  7.4000000000000E-01  5.4555053552333E-01  1.4461136803868E+00
76  7.5000000000000E-01  5.0267633540059E-01  1.4831745761361E+00
77  7.6000000000000E-01  4.6046944980707E-01  1.5168920749294E+00
78  7.7000000000000E-01  4.1904094482733E-01  1.5471108726053E+00
79  7.8000000000000E-01  3.7849744491570E-01  1.5736917347765E+00
80  7.9000000000000E-01  3.3894069981809E-01  1.5965127392577E+00
81  8.0000000000000E-01  3.0046717287468E-01  1.6154704142885E+00
82  8.1000000000000E-01  2.6316765282257E-01  1.6304807591114E+00
83  8.2000000000000E-01  2.2712689113183E-01  1.6414801342978E+00
84  8.3000000000000E-01  1.9242326681826E-01  1.6484260101985E+00
85  8.4000000000000E-01  1.5912848058238E-01  1.6512975629978E+00
86  8.5000000000000E-01  1.2730728002723E-01  1.6500961090767E+00
87  8.6000000000000E-01  9.7017217607396E-02  1.6448453697119E+00
88  8.7000000000000E-01  6.8308442858999E-02  1.6355915595358E+00
89  8.8000000000000E-01  4.1223530355616E-02  1.6224032936503E+00
90  8.9000000000000E-01  1.5797344727569E-02  1.6053713097847E+00
91  9.0000000000000E-01 -7.9430560268251E-03  1.5846080034138E+00
92  9.1000000000000E-01 -2.9978477820812E-02  1.5602467752689E+00
93  9.2000000000000E-01 -5.0297607345215E-02  1.5324411921733E+00
94  9.3000000000000E-01 -6.8896987631242E-02  1.5013639635795E+00
95  9.4000000000000E-01 -8.5780951537410E-02  1.4672057375784E+00
96  9.5000000000000E-01 -1.0096151250565E-01  1.4301737214397E+00
97  9.6000000000000E-01 -1.1445821205145E-01  1.3904901329411E+00
98  9.7000000000000E-01 -1.2629792357544E-01  1.3483904898275E+00
99  9.8000000000000E-01 -1.3651461220593E-01  1.3041217456666E+00
100  9.9000000000000E-01 -1.4514905050629E-01  1.2579402811672E+00
101  1.0000000000000E+00 -1.5224849000698E-01  1.2101097606522E+00
102  1.0100000000000E+00 -1.5786628864711E-01  1.1608988638474E+00
103  1.0200000000000E+00 -1.6206149434031E-01  1.1105789034294E+00
104  1.0300000000000E+00 -1.6489838499968E-01  1.0594213388988E+00
105  1.0400000000000E+00 -1.6644596548977E-01  1.0076951972868E+00
106  1.0500000000000E+00 -1.6677742209485E-01  9.5566441096123E-01
107  1.0600000000000E+00 -1.6596953521608E-01  9.0358508240593E-01
108  1.0700000000000E+00 -1.6410205113268E-01  8.5170268527508E-01
109  1.0800000000000E+00 -1.6125701324289E-01  8.0024920451616E-01
110  1.0900000000000E+00 -1.5751805462352E-01  7.4944023496611E-01
111  1.1000000000000E+00 -1.5296966396904E-01  6.9947214114831E-01
112  1.1100000000000E+00 -1.4769638395741E-01  6.5051889094208E-01
113  1.1200000000000E+00 -1.4178198669491E-01  6.0272892309228E-01
114  1.1300000000000E+00 -1.3530940156754E-01  5.5623050552300E-01
115  1.1400000000000E+00 -1.2836097087081E-01  5.1113904627322E-01
116  1.1500000000000E+00 -1.2101854697041E-01  4.6756157360762E-01
117  1.1600000000000E+00 -1.1336309091272E-01  4.2559533150712E-01
118  1.1700000000000E+00 -1.0547440642263E-01  3.8532811527359E-01
119  1.1800000000000E+00 -9.7430844275340E-02  3.4683827019675E-01
120  1.1900000000000E+00 -8.9309020313350E-02  3.1019488337288E-01
121  1.2000000000000E+00 -8.1183538298937E-02  2.7545803634021E-01
122  1.2100000000000E+00 -7.3126721396201E-02  2.4267914190744E-01
123  1.2200000000000E+00 -6.5208352884180E-02  2.1190135021614E-01
124  1.2300000000000E+00 -5.7495427023969E-02  1.8316001318169E-01
125  1.2400000000000E+00 -5.0051910958056E-02  1.5648319583035E-01
126  1.2500000000000E+00 -4.2938518393823E-02  1.3189222215034E-01
127  1.2600000000000E+00 -3.6212495786116E-02  1.0940224332161E-01
128  1.2700000000000E+00 -2.9927421697845E-02  8.9022815888812E-02
129  1.2800000000000E+00 -2.4133019917365E-02  7.0758477511157E-02
130  1.2900000000000E+00 -1.8874986860781E-02  5.4609308743896E-02
131  1.3000000000000E+00 -1.4194833777440E-02  4.0571469133867E-02
132  1.3100000000000E+00 -1.0129744168509E-02  2.8637696984951E-02
133  1.3200000000000E+00 -6.7140787093156E-03  1.8802190686845E-02
134  1.3300000000000E+00 -3.9715157601023E-03  1.1039987660541E-02
135  1.3400000000000E+00 -1.9165170385892E-03  5.3111202052271E-03
136  1.3500000000000E+00 -6.2436273224911E-04  1.7547284655934E-03
137  1.3600000000000E+00 -4.8462626096756E-05  1.8380351544372E-04
138  1.3700000000000E+00  5.9715820939457E-05 -1.3279859867951E-04
139  1.3800000000000E+00 -2.9856428437739E-06  7.0767405998466E-06
140  1.3900000000000E+00 -1.4323853439034E-05  3.4650415214547E-05
141  1.4000000000000E+00  2.4404346842816E-06 -5.7430843992227E-06
142  1.4100000000000E+00  1.4160875802393E-06 -3.3659077474843E-06
143  1.4200000000000E+00 -5.3781066004104E-08  7.4189225094325E-09
144  1.4300000000000E+00  0.0000000000000E+00  0.0000000000000E+00
145  1.4400000000000E+00  0.0000000000000E+00  0.0000000000000E+00
146  1.4500000000000E+00  0.0000000000000E+00  0.0000000000000E+00
147  1.4600000000000E+00  0.0000000000000E+00  0.0000000000000E+00
148  1.4700000000000E+00  0.0000000000000E+00  0.0000000000000E+00
149  1.4800000000000E+00  0.0000000000000E+00  0.0000000000000E+00
150  1.4900000000000E+00  0.0000000000000E+00  0.0000000000000E+00
151  1.5000000000000E+00  0.0000000000000E+00  0.0000000000000E+00
152  1.5100000000000E+00  0.0000000000000E+00  0.0000000000000E+00
153  1.5200000000000E+00  0.0000000000000E+00  0.0000000000000E+00
154  1.5300000000000E+00  0.0000000000000E+00  0.0000000000000E+00
155  1.5400000000000E+00  0.0000000000000E+00  0.0000000000000E+00
156  1.5500000000000E+00  0.0000000000000E+00  0.0000000000000E+00
157  1.5600000000000E+00  0.0000000000000E+00  0.0000000000000E+00
158  1.5700000000000E+00  0.0000000000000E+00  0.0000000000000E+00
159  1.5800000000000E+00  0.0000000000000E+00  0.0000000000000E+00
160  1.5900000000000E+00  0.0000000000000E+00  0.0000000000000E+00
161  1.6000000000000E+00  0.0000000000000E+00  0.0000000000000E+00
162  1.6100000000000E+00  0.0000000000000E+00  0.0000000000000E+00
163  1.6200000000000E+00  0.0000000000000E+00  0.0000000000000E+00
164  1.6300000000000E+00  0.0000000000000E+00  0.0000000000000E+00
165  1.6400000000000E+00  0.0000000000000E+00  0.0000000000000E+00
166  1.6500000000000E+00  0.0000000000000E+00  0.0000000000000E+00
167  1.6600000000000E+00  0.0000000000000E+00  0.0000000000000E+00
168  1.6700000000000E+00  0.0000000000000E+00  0.0000000000000E+00
169  1.6800000000000E+00  0.0000000000000E+00  0.0000000000000E+00
170  1.6900000000000E+00  0.0000000000000E+00  0.0000000000000E+00
171  1.7000000000000E+00  0.0000000000000E+00  0.0000000000000E+00
172  1.7100000000000E+00  0.0000000000000E+00  0.0000000000000E+00
173  1.7200000000000E+00  0.0000000000000E+00  0.0000000000000E+00
174  1.7300000000000E+00  0.0000000000000E+00  0.0000000000000E+00
175  1.7400000000000E+00  0.0000000000000E+00  0.0000000000000E+00
176  1.7500000000000E+00  0.0000000000000E+00  0.0000000000000E+00
177  1.7600000000000E+00  0.0000000000000E+00  0.0000000000000E+00
178  1.7700000000000E+00  0.0000000000000E+00  0.0000000000000E+00
179  1.7800000000000E+00  0.0000000000000E+00  0.0000000000000E+00
180  1.7900000000000E+00  0.0000000000000E+00  0.0000000000000E+00
181  1.8000000000000E+00  0.0000000000000E+00  0.0000000000000E+00
182  1.8100000000000E+00  0.0000000000000E+00  0.0000000000000E+00
183  1.8200000000000E+00  0.0000000000000E+00  0.0000000000000E+00
184  1.8300000000000E+00  0.0000000000000E+00  0.0000000000000E+00
185  1.8400000000000E+00  0.0000000000000E+00  0.0000000000000E+00
186  1.8500000000000E+00  0.0000000000000E+00  0.0000000000000E+00
187  1.8600000000000E+00  0.0000000000000E+00  0.0000000000000E+00
188  1.8700000000000E+00  0.0000000000000E+00  0.0000000000000E+00
189  1.8800000000000E+00  0.0000000000000E+00  0.0000000000000E+00
190  1.8900000000000E+00  0.0000000000000E+00  0.0000000000000E+00
191  1.9000000000000E+00  0.0000000000000E+00  0.0000000000000E+00
192  1.9100000000000E+00  0.0000000000000E+00  0.0000000000000E+00
193  1.9200000000000E+00  0.0000000000000E+00  0.0000000000000E+00
194  1.9300000000000E+00  0.0000000000000E+00  0.0000000000000E+00
195  1.9400000000000E+00  0.0000000000000E+00  0.0000000000000E+00
196  1.9500000000000E+00  0.0000000000000E+00  0.0000000000000E+00
197  1.9600000000000E+00  0.0000000000000E+00  0.0000000000000E+00
198  1.9700000000000E+00  0.0000000000000E+00  0.0000000000000E+00
199  1.9800000000000E+00  0.0000000000000E+00  0.0000000000000E+00
200  1.9900000000000E+00  0.0000000000000E+00  0.0000000000000E+00
201  2.0000000000000E+00  0.0000000000000E+00  0.0000000000000E+00
202  2.0100000000000E+00  0.0000000000000E+00  0.0000000000000E+00
203  2.0200000000000E+00  0.0000000000000E+00  0.0000000000000E+00
204  2.0300000000000E+00  0.0000000000000E+00  0.0000000000000E+00
205  2.0400000000000E+00  0.0000000000000E+00  0.0000000000000E+00
206  2.0500000000000E+00  0.0000000000000E+00  0.0000000000000E+00
207  2.0600000000000E+00  0.0000000000000E+00  0.0000000000000E+00
208  2.0700000000000E+00  0.0000000000000E+00  0.0000000000000E+00
209  2.0800000000000E+00  0.0000000000000E+00  0.0000000000000E+00
210  2.0900000000000E+00  0.0000000000000E+00  0.0000000000000E+00
211  2.1000000000000E+00  0.0000000000000E+00  0.0000000000000E+00
212  2.1100000000000E+00  0.0000000000000E+00  0.0000000000000E+00
213  2.1200000000000E+00  0.0000000000000E+00  0.0000000000000E+00
214  2.1300000000000E+00  0.0000000000000E+00  0.0000000000000E+00
215  2.1400000000000E+00  0.0000000000000E+00  0.0000000000000E+00
216  2.1500000000000E+00  0.0000000000000E+00  0.0000000000000E+00
217  2.1600000000000E+00  0.0000000000000E+00  0.0000000000000E+00
218  2.1700000000000E+00  0.0000000000000E+00  0.0000000000000E+00
219  2.1800000000000E+00  0.0000000000000E+00  0.0000000000000E+00
220  2.1900000000000E+00  0.0000000000000E+00  0.0000000000000E+00
221  2.2000000000000E+00  0.0000000000000E+00  0.0000000000000E+00
222  2.2100000000000E+00  0.0000000000000E+00  0.0000000000000E+00
223  2.2200000000000E+00  0.0000000000000E+00  0.0000000000000E+00
224  2.2300000000000E+00  0.0000000000000E+00  0.0000000000000E+00
225  2.2400000000000E+00  0.0000000000000E+00  0.0000000000000E+00
226  2.2500000000000E+00  0.0000000000000E+00  0.0000000000000E+00
227  2.2600000000000E+00  0.0000000000000E+00  0.0000000000000E+00
228  2.2700000000000E+00  0.0000000000000E+00  0.0000000000000E+00
229  2.2800000000000E+00  0.0000000000000E+00  0.0000000000000E+00
230  2.2900000000000E+00  0.0000000000000E+00  0.0000000000000E+00
231  2.3000000000000E+00  0.0000000000000E+00  0.0000000000000E+00
232  2.3100000000000E+00  0.0000000000000E+00  0.0000000000000E+00
233  2.3200000000000E+00  0.0000000000000E+00  0.0000000000000E+00
234  2.3300000000000E+00  0.0000000000000E+00  0.0000000000000E+00
235  2.3400000000000E+00  0.0000000000000E+00  0.0000000000000E+00
236  2.3500000000000E+00  0.0000000000000E+00  0.0000000000000E+00
237  2.3600000000000E+00  0.0000000000000E+00  0.0000000000000E+00
238  2.3700000000000E+00  0.0000000000000E+00  0.0000000000000E+00
239  2.3800000000000E+00  0.0000000000000E+00  0.0000000000000E+00
240  2.3900000000000E+00  0.0000000000000E+00  0.0000000000000E+00
241  2.4000000000000E+00  0.0000000000000E+00  0.0000000000000E+00
242  2.4100000000000E+00  0.0000000000000E+00  0.0000000000000E+00
243  2.4200000000000E+00  0.0000000000000E+00  0.0000000000000E+00
244  2.4300000000000E+00  0.0000000000000E+00  0.0000000000000E+00
245  2.4400000000000E+00  0.0000000000000E+00  0.0000000000000E+00
246  2.4500000000000E+00  0.0000000000000E+00  0.0000000000000E+00
247  2.4600000000000E+00  0.0000000000000E+00  0.0000000000000E+00
248  2.4700000000000E+00  0.0000000000000E+00  0.0000000000000E+00
249  2.4800000000000E+00  0.0000000000000E+00  0.0000000000000E+00
250  2.4900000000000E+00  0.0000000000000E+00  0.0000000000000E+00
251  2.5000000000000E+00  0.0000000000000E+00  0.0000000000000E+00
252  2.5100000000000E+00  0.0000000000000E+00  0.0000000000000E+00
253  2.5200000000000E+00  0.0000000000000E+00  0.0000000000000E+00
254  2.5300000000000E+00  0.0000000000000E+00  0.0000000000000E+00
255  2.5400000000000E+00  0.0000000000000E+00  0.0000000000000E+00
256  2.5500000000000E+00  0.0000000000000E+00  0.0000000000000E+00
257  2.5600000000000E+00  0.0000000000000E+00  0.0000000000000E+00
258  2.5700000000000E+00  0.0000000000000E+00  0.0000000000000E+00
259  2.5800000000000E+00  0.0000000000000E+00  0.0000000000000E+00
260  2.5900000000000E+00  0.0000000000000E+00  0.0000000000000E+00
261  2.6000000000000E+00  0.0000000000000E+00  0.0000000000000E+00
262  2.6100000000000E+00  0.0000000000000E+00  0.0000000000000E+00
263  2.6200000000000E+00  0.0000000000000E+00  0.0000000000000E+00
264  2.6300000000000E+00  0.0000000000000E+00  0.0000000000000E+00
265  2.6400000000000E+00  0.0000000000000E+00  0.0000000000000E+00
266  2.6500000000000E+00  0.0000000000000E+00  0.0000000000000E+00
267  2.6600000000000E+00  0.0000000000000E+00  0.0000000000000E+00
268  2.6700000000000E+00  0.0000000000000E+00  0.0000000000000E+00
269  2.6800000000000E+00  0.0000000000000E+00  0.0000000000000E+00
270  2.6900000000000E+00  0.0000000000000E+00  0.0000000000000E+00
271  2.7000000000000E+00  0.0000000000000E+00  0.0000000000000E+00
272  2.7100000000000E+00  0.0000000000000E+00  0.0000000000000E+00
273  2.7200000000000E+00  0.0000000000000E+00  0.0000000000000E+00
274  2.7300000000000E+00  0.0000000000000E+00  0.0000000000000E+00
275  2.7400000000000E+00  0.0000000000000E+00  0.0000000000000E+00
276  2.7500000000000E+00  0.0000000000000E+00  0.0000000000000E+00
277  2.7600000000000E+00  0.0000000000000E+00  0.0000000000000E+00
278  2.7700000000000E+00  0.0000000000000E+00  0.0000000000000E+00
279  2.7800000000000E+00  0.0000000000000E+00  0.0000000000000E+00
280  2.7900000000000E+00  0.0000000000000E+00  0.0000000000000E+00
281  2.8000000000000E+00  0.0000000000000E+00  0.0000000000000E+00
282  2.8100000000000E+00  0.0000000000000E+00  0.0000000000000E+00
283  2.8200000000000E+00  0.0000000000000E+00  0.0000000000000E+00
284  2.8300000000000E+00  0.0000000000000E+00  0.0000000000000E+00
285  2.8400000000000E+00  0.0000000000000E+00  0.0000000000000E+00
286  2.8500000000000E+00  0.0000000000000E+00  0.0000000000000E+00
287  2.8600000000000E+00  0.0000000000000E+00  0.0000000000000E+00
288  2.8700000000000E+00  0.0000000000000E+00  0.0000000000000E+00
289  2.8800000000000E+00  0.0000000000000E+00  0.0000000000000E+00
290  2.8900000000000E+00  0.0000000000000E+00  0.0000000000000E+00
291  2.9000000000000E+00  0.0000000000000E+00  0.0000000000000E+00
292  2.9100000000000E+00  0.0000000000000E+00  0.0000000000000E+00
293  2.9200000000000E+00  0.0000000000000E+00  0.0000000000000E+00
294  2.9300000000000E+00  0.0000000000000E+00  0.0000000000000E+00
295  2.9400000000000E+00  0.0000000000000E+00  0.0000000000000E+00
296  2.9500000000000E+00  0.0000000000000E+00  0.0000000000000E+00
297  2.9600000000000E+00  0.0000000000000E+00  0.0000000000000E+00
298  2.9700000000000E+00  0.0000000000000E+00  0.0000000000000E+00
299  2.9800000000000E+00  0.0000000000000E+00  0.0000000000000E+00
300  2.9900000000000E+00  0.0000000000000E+00  0.0000000000000E+00
301  3.0000000000000E+00  0.0000000000000E+00  0.0000000000000E+00
302  3.0100000000000E+00  0.0000000000000E+00  0.0000000000000E+00
303  3.0200000000000E+00  0.0000000000000E+00  0.0000000000000E+00
304  3.0300000000000E+00  0.0000000000000E+00  0.0000000000000E+00
305  3.0400000000000E+00  0.0000000000000E+00  0.0000000000000E+00
306  3.0500000000000E+00  0.0000000000000E+00  0.0000000000000E+00
307  3.0600000000000E+00  0.0000000000000E+00  0.0000000000000E+00
308  3.0700000000000E+00  0.0000000000000E+00  0.0000000000000E+00
309  3.0800000000000E+00  0.0000000000000E+00  0.0000000000000E+00
310  3.0900000000000E+00  0.0000000000000E+00  0.0000000000000E+00
311  3.1000000000000E+00  0.0000000000000E+00  0.0000000000000E+00
312  3.1100000000000E+00  0.0000000000000E+00  0.0000000000000E+00
313  3.1200000000000E+00  0.0000000000000E+00  0.0000000000000E+00
314  3.1300000000000E+00  0.0000000000000E+00  0.0000000000000E+00
315  3.1400000000000E+00  0.0000000000000E+00  0.0000000000000E+00
316  3.1500000000000E+00  0.0000000000000E+00  0.0000000000000E+00
317  3.1600000000000E+00  0.0000000000000E+00  0.0000000000000E+00
318  3.1700000000000E+00  0.0000000000000E+00  0.0000000000000E+00
319  3.1800000000000E+00  0.0000000000000E+00  0.0000000000000E+00
320  3.1900000000000E+00  0.0000000000000E+00  0.0000000000000E+00
321  3.2000000000000E+00  0.0000000000000E+00  0.0000000000000E+00
322  3.2100000000000E+00  0.0000000000000E+00  0.0000000000000E+00
323  3.2200000000000E+00  0.0000000000000E+00  0.0000000000000E+00
324  3.2300000000000E+00  0.0000000000000E+00  0.0000000000000E+00
325  3.2400000000000E+00  0.0000000000000E+00  0.0000000000000E+00
326  3.2500000000000E+00  0.0000000000000E+00  0.0000000000000E+00
327  3.2600000000000E+00  0.0000000000000E+00  0.0000000000000E+00
328  3.2700000000000E+00  0.0000000000000E+00  0.0000000000000E+00
329  3.2800000000000E+00  0.0000000000000E+00  0.0000000000000E+00
330  3.2900000000000E+00  0.0000000000000E+00  0.0000000000000E+00
331  3.3000000000000E+00  0.0000000000000E+00  0.0000000000000E+00
332  3.3100000000000E+00  0.0000000000000E+00  0.0000000000000E+00
333  3.3200000000000E+00  0.0000000000000E+00  0.0000000000000E+00
334  3.3300000000000E+00  0.0000000000000E+00  0.0000000000000E+00
335  3.3400000000000E+00  0.0000000000000E+00  0.0000000000000E+00
336  3.3500000000000E+00  0.0000000000000E+00  0.0000000000000E+00
337  3.3600000000000E+00  0.0000000000000E+00  0.0000000000000E+00
338  3.3700000000000E+00  0.0000000000000E+00  0.0000000000000E+00
339  3.3800000000000E+00  0.0000000000000E+00  0.0000000000000E+00
340  3.3900000000000E+00  0.0000000000000E+00  0.0000000000000E+00
341  3.4000000000000E+00  0.0000000000000E+00  0.0000000000000E+00
342  3.4100000000000E+00  0.0000000000000E+00  0.0000000000000E+00
343  3.4200000000000E+00  0.0000000000000E+00  0.0000000000000E+00
344  3.4300000000000E+00  0.0000000000000E+00  0.0000000000000E+00
345  3.4400000000000E+00  0.0000000000000E+00  0.0000000000000E+00
346  3.4500000000000E+00  0.0000000000000E+00  0.0000000000000E+00
347  3.4600000000000E+00  0.0000000000000E+00  0.0000000000000E+00
348  3.4700000000000E+00  0.0000000000000E+00  0.0000000000000E+00
349  3.4800000000000E+00  0.0000000000000E+00  0.0000000000000E+00
350  3.4900000000000E+00  0.0000000000000E+00  0.0000000000000E+00
351  3.5000000000000E+00  0.0000000000000E+00  0.0000000000000E+00
352  3.5100000000000E+00  0.0000000000000E+00  0.0000000000000E+00
353  3.5200000000000E+00  0.0000000000000E+00  0.0000000000000E+00
354  3.5300000000000E+00  0.0000000000000E+00  0.0000000000000E+00
355  3.5400000000000E+00  0.0000000000000E+00  0.0000000000000E+00
356  3.5500000000000E+00  0.0000000000000E+00  0.0000000000000E+00
357  3.5600000000000E+00  0.0000000000000E+00  0.0000000000000E+00
358  3.5700000000000E+00  0.0000000000000E+00  0.0000000000000E+00
359  3.5800000000000E+00  0.0000000000000E+00  0.0000000000000E+00
360  3.5900000000000E+00  0.0000000000000E+00  0.0000000000000E+00
361  3.6000000000000E+00  0.0000000000000E+00  0.0000000000000E+00
362  3.6100000000000E+00  0.0000000000000E+00  0.0000000000000E+00
363  3.6200000000000E+00  0.0000000000000E+00  0.0000000000000E+00
364  3.6300000000000E+00  0.0000000000000E+00  0.0000000000000E+00
365  3.6400000000000E+00  0.0000000000000E+00  0.0000000000000E+00
366  3.6500000000000E+00  0.0000000000000E+00  0.0000000000000E+00
367  3.6600000000000E+00  0.0000000000000E+00  0.0000000000000E+00
368  3.6700000000000E+00  0.0000000000000E+00  0.0000000000000E+00
369  3.6800000000000E+00  0.0000000000000E+00  0.0000000000000E+00
370  3.6900000000000E+00  0.0000000000000E+00  0.0000000000000E+00
371  3.7000000000000E+00  0.0000000000000E+00  0.0000000000000E+00
372  3.7100000000000E+00  0.0000000000000E+00  0.0000000000000E+00
373  3.7200000000000E+00  0.0000000000000E+00  0.0000000000000E+00
374  3.7300000000000E+00  0.0000000000000E+00  0.0000000000000E+00
375  3.7400000000000E+00  0.0000000000000E+00  0.0000000000000E+00
376  3.7500000000000E+00  0.0000000000000E+00  0.0000000000000E+00
377  3.7600000000000E+00  0.0000000000000E+00  0.0000000000000E+00
378  3.7700000000000E+00  0.0000000000000E+00  0.0000000000000E+00
379  3.7800000000000E+00  0.0000000000000E+00  0.0000000000000E+00
380  3.7900000000000E+00  0.0000000000000E+00  0.0000000000000E+00
381  3.8000000000000E+00  0.0000000000000E+00  0.0000000000000E+00
382  3.8100000000000E+00  0.0000000000000E+00  0.0000000000000E+00
383  3.8200000000000E+00  0.0000000000000E+00  0.0000000000000E+00
384  3.8300000000000E+00  0.0000000000000E+00  0.0000000000000E+00
385  3.8400000000000E+00  0.0000000000000E+00  0.0000000000000E+00
386  3.8500000000000E+00  0.0000000000000E+00  0.0000000000000E+00
387  3.8600000000000E+00  0.0000000000000E+00  0.0000000000000E+00
388  3.8700000000000E+00  0.0000000000000E+00  0.0000000000000E+00
389  3.8800000000000E+00  0.0000000000000E+00  0.0000000000000E+00
390  3.8900000000000E+00  0.0000000000000E+00  0.0000000000000E+00
391  3.9000000000000E+00  0.0000000000000E+00  0.0000000000000E+00
392  3.9100000000000E+00  0.0000000000000E+00  0.0000000000000E+00
393  3.9200000000000E+00  0.0000000000000E+00  0.0000000000000E+00
394  3.9300000000000E+00  0.0000000000000E+00  0.0000000000000E+00
395  3.9400000000000E+00  0.0000000000000E+00  0.0000000000000E+00
396  3.9500000000000E+00  0.0000000000000E+00  0.0000000000000E+00
397  3.9600000000000E+00  0.0000000000000E+00  0.0000000000000E+00
398  3.9700000000000E+00  0.0000000000000E+00  0.0000000000000E+00
399  3.9800000000000E+00  0.0000000000000E+00  0.0000000000000E+00
400  3.9900000000000E+00  0.0000000000000E+00  0.0000000000000E+00
1                         4.3790006395445E+00  5.5364704258530E-01
1  0.0000000000000E+00  4.2364634023073E-10 -1.7921319844794E-09
2  1.0000000000000E-02  1.6034566474189E-03 -1.2022485776790E-03
3  2.0000000000000E-02  6.4072240825218E-03 -4.7992335723882E-03
4  3.0000000000000E-02  1.4391526744564E-02 -1.0761757337987E-02
5  4.0000000000000E-02  2.5523511667644E-02 -1.9041438013165E-02
6  5.0000000000000E-02  3.9757407118524E-02 -2.9571127311398E-02
7  6.0000000000000E-02  5.7034743069501E-02 -4.2265488414916E-02
8  7.0000000000000E-02  7.7284631909055E-02 -5.7021727084237E-02
9  8.0000000000000E-02  1.0042410736939E-01 -7.3720467302654E-02
10  9.0000000000000E-02  1.2635851925013E-01 -9.2226761111252E-02
11  1.0000000000000E-01  1.5498198114557E-01 -1.1239122077649E-01
12  1.1000000000000E-01  1.8617786804371E-01 -1.3405126009506E-01
13  1.2000000000000E-01  2.1981936036220E-01 -1.5703243049550E-01
14  1.3000000000000E-01  2.5577003072231E-01 -1.8114983666058E-01
15  1.4000000000000E-01  2.9388446953970E-01 -2.0620961568158E-01
16  1.5000000000000E-01  3.3400894533202E-01 -2.3201046327496E-01
17  1.6000000000000E-01  3.7598209550985E-01 -2.5834519034736E-01
18  1.7000000000000E-01  4.1963564332845E-01 -2.8500229319261E-01
19  1.8000000000000E-01  4.6479513663544E-01 -3.1176752083736E-01
20  1.9000000000000E-01  5.1128070405044E-01 -3.3842542351933E-01
21  2.0000000000000E-01  5.5890782425785E-01 -3.6476086697226E-01
22  2.1000000000000E-01  6.0748810417964E-01 -3.9056049809196E-01
23  2.2000000000000E-01  6.5683006191961E-01 -4.1561414865336E-01
24  2.3000000000000E-01  7.0673991053033E-01 -4.3971616501926E-01
25  2.4000000000000E-01  7.5702233884579E-01 -4.6266665320577E-01
26  2.5000000000000E-01  8.0748128584172E-01 -4.8427263022246E-01
27  2.6000000000000E-01  8.5792070522839E-01 -5.0434907426195E-01
28  2.7000000000000E-01  9.0814531724131E-01 -5.2271986804367E-01
29  2.8000000000000E-01  9.5796134486995E-01 -5.3921863139306E-01
30  2.9000000000000E-01  1.0071772320473E+00 -5.5368944092815E-01
31  3.0000000000000E-01  1.0556043416095E+00 -5.6598743650203E-01
32  3.1000000000000E-01  1.1030576311193E+00 -5.7597931578105E-01
33  3.2000000000000E-01  1.1493563049252E+00 -5.8354371999564E-01
34  3.3000000000000E-01  1.1943244410944E+00 -5.8857151545578E-01
35  3.4000000000000E-01  1.2377915921095E+00 -5.9096597684997E-01
36  3.5000000000000E-01  1.2795933584491E+00 -5.9064287962148E-01
37  3.6000000000000E-01  1.3195719343816E+00 -5.8753050981622E-01
38  3.7000000000000E-01  1.3575766254836E+00 -5.8156960070526E-01
39  3.8000000000000E-01  1.3934643375463E+00 -5.7271320618721E-01
40  3.9000000000000E-01  1.4271000366575E+00 -5.6092652145814E-01
41  4.0000000000000E-01  1.4583571803377E+00 -5.4618666169300E-01
42  4.1000000000000E-01  1.4871181196680E+00 -5.2848240950988E-01
43  4.2000000000000E-01  1.5132744723746E+00 -5.0781394178452E-01