Ca    ONCVPSP-3.2.3.1  r_core=   1.45885   1.45885   1.85192
20.0000     10.0000      170504    zatom,zion,pspd
8      11   2     4   400     0    pspcod,pspxc,lmax,lloc,mmax,r2well
3.99000000  6.00000000  0.00000000    rchrg fchrg qchrg
2     2     2     0     0    nproj
1     1           extension_switch
0                         1.0063789352773E+01  9.7239096602960E-01
1  0.0000000000000E+00 -3.4654412672808E-10  1.4395392655686E-09
2  1.0000000000000E-02  7.0845407209523E-02 -3.9351288971143E-02
3  2.0000000000000E-02  1.4153261705160E-01 -7.8451072198856E-02
4  3.0000000000000E-02  2.1190411572207E-01 -1.1704994554602E-01
5  4.0000000000000E-02  2.8180375000058E-01 -1.5490268177679E-01
6  5.0000000000000E-02  3.5107739127570E-01 -1.9177025360171E-01
7  6.0000000000000E-02  4.1957358029991E-01 -2.2742177927547E-01
8  7.0000000000000E-02  4.8714414666452E-01 -2.6163636664739E-01
9  8.0000000000000E-02  5.5364479733078E-01 -2.9420483300451E-01
10  9.0000000000000E-02  6.1893566897749E-01 -3.2493127980804E-01
11  1.0000000000000E-01  6.8288183942016E-01 -3.5363450348116E-01
12  1.1000000000000E-01  7.4535379391553E-01 -3.8014922573011E-01
13  1.2000000000000E-01  8.0622784278054E-01 -4.0432712943963E-01
14  1.3000000000000E-01  8.6538648741636E-01 -4.2603768893892E-01
15  1.4000000000000E-01  9.2271873252791E-01 -4.4516878634959E-01
16  1.5000000000000E-01  9.7812034305607E-01 -4.6162710875769E-01
17  1.6000000000000E-01  1.0314940450839E+00 -4.7533832405686E-01
18  1.7000000000000E-01  1.0827496707274E+00 -4.8624703644289E-01
19  1.8000000000000E-01  1.1318042477680E+00 -4.9431652565764E-01
20  1.9000000000000E-01  1.1785820355106E+00 -4.9952827713573E-01
21  2.0000000000000E-01  1.2230145090575E+00 -5.0188131315894E-01
22  2.1000000000000E-01  1.2650402948515E+00 -5.0139133792469E-01
23  2.2000000000000E-01  1.3046050609630E+00 -4.9808971204895E-01
24  2.3000000000000E-01  1.3416613661587E+00 -4.9202227440835E-01
25  2.4000000000000E-01  1.3761684722902E+00 -4.8324803134938E-01
26  2.5000000000000E-01  1.4080921249665E+00 -4.7183773511969E-01
27  2.6000000000000E-01  1.4374043078261E+00 -4.5787237488196E-01
28  2.7000000000000E-01  1.4640829759881E+00 -4.4144160483018E-01
29  2.8000000000000E-01  1.4881117744409E+00 -4.2264213472476E-01
30  2.9000000000000E-01  1.5094797472123E+00 -4.0157610858063E-01
31  3.0000000000000E-01  1.5281810431613E+00 -3.7834949727778E-01
32  3.1000000000000E-01  1.5442146241310E+00 -3.5307053050943E-01
33  3.2000000000000E-01  1.5575839810134E+00 -3.2584819274649E-01
34  3.3000000000000E-01  1.5682968629969E+00 -2.9679080678482E-01
35  3.4000000000000E-01  1.5763650249026E+00 -2.6600472696821E-01
36  3.5000000000000E-01  1.5818039970704E+00 -2.3359316236643E-01
37  3.6000000000000E-01  1.5846328817354E+00 -1.9965514805616E-01
38  3.7000000000000E-01  1.5848741792526E+00 -1.6428468023559E-01
39  3.8000000000000E-01  1.5825536468799E+00 -1.2757002823177E-01
40  3.9000000000000E-01  1.5777001921401E+00 -8.9593233574026E-02
41  4.0000000000000E-01  1.5703458020527E+00 -5.0429803246220E-02
42  4.1000000000000E-01  1.5605255087660E+00 -1.0148601040766E-02
43  4.2000000000000E-01  1.5482773913489E+00  3.1188062336480E-02
44  4.3000000000000E-01  1.5336426127260E+00  7.3524143069601E-02
45  4.4000000000000E-01  1.5166654899669E+00  1.1680938789847E-01
46  4.5000000000000E-01  1.4973935953970E+00  1.6099867683286E-01
47  4.6000000000000E-01  1.4758778852789E+00  2.0605119721923E-01
48  4.7000000000000E-01  1.4521728521400E+00  2.5192946442506E-01
49  4.8000000000000E-01  1.4263366962106E+00  2.9859820715757E-01
50  4.9000000000000E-01  1.3984315108773E+00  3.4602313793834E-01
51  5.0000000000000E-01  1.3685234765893E+00  3.9416963146850E-01
52  5.1000000000000E-01  1.3366830572551E+00  4.4300133550734E-01
53  5.2000000000000E-01  1.3029851928711E+00  4.9247874041591E-01
54  5.3000000000000E-01  1.2675094819164E+00  5.4255773466032E-01
55  5.4000000000000E-01  1.2303403469512E+00  5.9318817430504E-01
56  5.5000000000000E-01  1.1915671768540E+00  6.4431249483769E-01
57  5.6000000000000E-01  1.1512844392535E+00  6.9586439354411E-01
58  5.7000000000000E-01  1.1095917569246E+00  7.4776761008999E-01
59  5.8000000000000E-01  1.0665939422485E+00  7.9993483196941E-01
60  5.9000000000000E-01  1.0224009842695E+00  8.5226675005343E-01
61  6.0000000000000E-01  9.7712798340856E-01  9.0465128763740E-01
62  6.1000000000000E-01  9.3089502952307E-01  9.5696302415258E-01
63  6.2000000000000E-01  8.8382701970803E-01  1.0090628321238E+00
64  6.3000000000000E-01  8.3605341302836E-01  1.0607977430192E+00
65  6.4000000000000E-01  7.8770792022155E-01  1.1120010544383E+00
66  6.5000000000000E-01  7.3892812732554E-01  1.1624926876076E+00
67  6.6000000000000E-01  6.8985505314115E-01  1.2120798004882E+00
68  6.7000000000000E-01  6.4063264142139E-01  1.2605576579898E+00
69  6.8000000000000E-01  5.9140718968513E-01  1.3077107568598E+00
70  6.9000000000000E-01  5.4232671755530E-01  1.3533141988646E+00
71  7.0000000000000E-01  4.9354027851527E-01  1.3971353019309E+00
72  7.1000000000000E-01  4.4519721993764E-01  1.4389354350681E+00
73  7.2000000000000E-01  3.9744639716892E-01  1.4784720591268E+00
74  7.3000000000000E-01  3.5043534831622E-01  1.5155009519246E+00
75  7.4000000000000E-01  3.0430943718165E-01  1.5497785929533E+00
76  7.5000000000000E-01  2.5921097250535E-01  1.5810646798729E+00
77  7.6000000000000E-01  2.1527831229785E-01  1.6091247463339E+00
78  7.7000000000000E-01  1.7264496255990E-01  1.6337328483837E+00
79  7.8000000000000E-01  1.3143868008785E-01  1.6546742848587E+00
80  7.9000000000000E-01  9.1780589341419E-02  1.6717483157731E+00
81  8.0000000000000E-01  5.3784323500272E-02  1.6847708418041E+00
82  8.1000000000000E-01  1.7555199851583E-02  1.6935770075735E+00
83  8.2000000000000E-01 -1.6810560469667E-02  1.6980236915492E+00
84  8.3000000000000E-01 -4.9226558623825E-02  1.6979918460367E+00
85  8.4000000000000E-01 -7.9616880723470E-02  1.6933886519077E+00
86  8.5000000000000E-01 -1.0791668816207E-01  1.6841494544065E+00
87  8.6000000000000E-01 -1.3407272742810E-01  1.6702394485685E+00
88  8.7000000000000E-01 -1.5804375199610E-01  1.6516550854590E+00
89  8.8000000000000E-01 -1.7980084977659E-01  1.6284251735577E+00
90  8.9000000000000E-01 -1.9932767060001E-01  1.6006116531442E+00
91  9.0000000000000E-01 -2.1662054929350E-01  1.5683100254310E+00
92  9.1000000000000E-01 -2.3168852107060E-01  1.5316494223983E+00
93  9.2000000000000E-01 -2.4455322717755E-01  1.4907923077519E+00
94  9.3000000000000E-01 -2.5524871000991E-01  1.4459338040929E+00
95  9.4000000000000E-01 -2.6382109821403E-01  1.3973006461915E+00
96  9.5000000000000E-01 -2.7032818360072E-01  1.3451497651332E+00
97  9.6000000000000E-01 -2.7483889300478E-01  1.2897665129763E+00
98  9.7000000000000E-01 -2.7743265951990E-01  1.2314625424120E+00
99  9.8000000000000E-01 -2.7819869875995E-01  1.1705733605152E+00
100  9.9000000000000E-01 -2.7723519700596E-01  1.1074555802306E+00
101  1.0000000000000E+00 -2.7464841920243E-01  1.0424838974288E+00
102  1.0100000000000E+00 -2.7055174578139E-01  9.7604782522959E-01
103  1.0200000000000E+00 -2.6506464821079E-01  9.0854822080173E-01
104  1.0300000000000E+00 -2.5831161395493E-01  8.4039364289388E-01
105  1.0400000000000E+00 -2.5042103220506E-01  7.7199658095238E-01
106  1.0500000000000E+00 -2.4152405222724E-01  7.0376959859602E-01
107  1.0600000000000E+00 -2.3175342659022E-01  6.3612143587963E-01
108  1.0700000000000E+00 -2.2124235170639E-01  5.6945311549909E-01
109  1.0800000000000E+00 -2.1012331818935E-01  5.0415409844872E-01
110  1.0900000000000E+00 -1.9852698337279E-01  4.4059853413482E-01
111  1.1000000000000E+00 -1.8658107813612E-01  3.7914164927328E-01
112  1.1100000000000E+00 -1.7440935965513E-01  3.2011631801264E-01
113  1.1200000000000E+00 -1.6213062115041E-01  2.6382985373462E-01
114  1.1300000000000E+00 -1.4985776887059E-01  2.1056105991705E-01
115  1.1400000000000E+00 -1.3769697579025E-01  1.6055757464870E-01
116  1.1500000000000E+00 -1.2574692038520E-01  1.1403353924457E-01
117  1.1600000000000E+00 -1.1409811770841E-01  7.1167617168130E-02
118  1.1700000000000E+00 -1.0283234862775E-01  3.2101384379455E-02
119  1.1800000000000E+00 -9.2022192136623E-02 -3.0618913189481E-03
120  1.1900000000000E+00 -8.1730663812160E-02 -3.4258071244911E-02
121  1.2000000000000E+00 -7.2010962197260E-02 -6.1462561288798E-02
122  1.2100000000000E+00 -6.2906323365066E-02 -8.4690321736521E-02
123  1.2200000000000E+00 -5.4449982777158E-02 -1.0399547565338E-01
124  1.2300000000000E+00 -4.6665241414903E-02 -1.1947052804177E-01
125  1.2400000000000E+00 -3.9565631909846E-02 -1.3124521270768E-01
126  1.2500000000000E+00 -3.3155179736624E-02 -1.3948498626247E-01
127  1.2600000000000E+00 -2.7428751949702E-02 -1.4438919841601E-01
128  1.2700000000000E+00 -2.2372483840042E-02 -1.4618897744322E-01
129  1.2800000000000E+00 -1.7964283784502E-02 -1.4514481933819E-01
130  1.2900000000000E+00 -1.4174373395900E-02 -1.4154408182288E-01
131  1.3000000000000E+00 -1.0965984355446E-02 -1.3569777210425E-01
132  1.3100000000000E+00 -8.2957185026945E-03 -1.2793905202827E-01
133  1.3200000000000E+00 -6.1147463618952E-03 -1.1861762347439E-01
134  1.3300000000000E+00 -4.3706770423805E-03 -1.0809079553182E-01
135  1.3400000000000E+00 -3.0096400454525E-03 -9.6713986619375E-02
136  1.3500000000000E+00 -1.9779763338165E-03 -8.4833291821347E-02
137  1.3600000000000E+00 -1.2230312691393E-03 -7.2782666116476E-02
138  1.3700000000000E+00 -6.9423794894626E-04 -6.0879578755299E-02
139  1.3800000000000E+00 -3.4408476305771E-04 -4.9421211407515E-02
140  1.3900000000000E+00 -1.2903205156072E-04 -3.8680853895607E-02
141  1.4000000000000E+00 -1.0347162918476E-05 -2.8904634686681E-02
142  1.4100000000000E+00  4.5182228026226E-05 -2.0310982108530E-02
143  1.4200000000000E+00  6.4471363088647E-05 -1.3080822402782E-02
144  1.4300000000000E+00  6.6576731542494E-05 -7.3251626254051E-03
145  1.4400000000000E+00  6.7240339133876E-05 -3.2447981890113E-03
146  1.4500000000000E+00  7.6577707964061E-05 -9.9595907776046E-04
147  1.4600000000000E+00  6.8934869397638E-05 -1.2948039624590E-04
148  1.4700000000000E+00  2.6007087247750E-05  3.3326674324932E-05
149  1.4800000000000E+00 -5.8793643851873E-06 -1.3767930494462E-05
150  1.4900000000000E+00 -4.3226697403794E-06 -1.3300418809486E-05
151  1.5000000000000E+00  1.6082330153367E-06  2.6009962034653E-06
152  1.5100000000000E+00  5.3942459212612E-07  1.0255792075990E-06
153  1.5200000000000E+00 -2.0440114382260E-07  5.1648390585992E-07
154  1.5300000000000E+00 -4.9714554916784E-09  1.2561949028912E-08
155  1.5400000000000E+00  0.0000000000000E+00  0.0000000000000E+00
156  1.5500000000000E+00  0.0000000000000E+00  0.0000000000000E+00
157  1.5600000000000E+00  0.0000000000000E+00  0.0000000000000E+00
158  1.5700000000000E+00  0.0000000000000E+00  0.0000000000000E+00
159  1.5800000000000E+00  0.0000000000000E+00  0.0000000000000E+00
160  1.5900000000000E+00  0.0000000000000E+00  0.0000000000000E+00
161  1.6000000000000E+00  0.0000000000000E+00  0.0000000000000E+00
162  1.6100000000000E+00  0.0000000000000E+00  0.0000000000000E+00
163  1.6200000000000E+00  0.0000000000000E+00  0.0000000000000E+00
164  1.6300000000000E+00  0.0000000000000E+00  0.0000000000000E+00
165  1.6400000000000E+00  0.0000000000000E+00  0.0000000000000E+00
166  1.6500000000000E+00  0.0000000000000E+00  0.0000000000000E+00
167  1.6600000000000E+00  0.0000000000000E+00  0.0000000000000E+00
168  1.6700000000000E+00  0.0000000000000E+00  0.0000000000000E+00
169  1.6800000000000E+00  0.0000000000000E+00  0.0000000000000E+00
170  1.6900000000000E+00  0.0000000000000E+00  0.0000000000000E+00
171  1.7000000000000E+00  0.0000000000000E+00  0.0000000000000E+00
172  1.7100000000000E+00  0.0000000000000E+00  0.0000000000000E+00
173  1.7200000000000E+00  0.0000000000000E+00  0.0000000000000E+00
174  1.7300000000000E+00  0.0000000000000E+00  0.0000000000000E+00
175  1.7400000000000E+00  0.0000000000000E+00  0.0000000000000E+00
176  1.7500000000000E+00  0.0000000000000E+00  0.0000000000000E+00
177  1.7600000000000E+00  0.0000000000000E+00  0.0000000000000E+00
178  1.7700000000000E+00  0.0000000000000E+00  0.0000000000000E+00
179  1.7800000000000E+00  0.0000000000000E+00  0.0000000000000E+00
180  1.7900000000000E+00  0.0000000000000E+00  0.0000000000000E+00
181  1.8000000000000E+00  0.0000000000000E+00  0.0000000000000E+00
182  1.8100000000000E+00  0.0000000000000E+00  0.0000000000000E+00
183  1.8200000000000E+00  0.0000000000000E+00  0.0000000000000E+00
184  1.8300000000000E+00  0.0000000000000E+00  0.0000000000000E+00
185  1.8400000000000E+00  0.0000000000000E+00  0.0000000000000E+00
186  1.8500000000000E+00  0.0000000000000E+00  0.0000000000000E+00
187  1.8600000000000E+00  0.0000000000000E+00  0.0000000000000E+00
188  1.8700000000000E+00  0.0000000000000E+00  0.0000000000000E+00
189  1.8800000000000E+00  0.0000000000000E+00  0.0000000000000E+00
190  1.8900000000000E+00  0.0000000000000E+00  0.0000000000000E+00
191  1.9000000000000E+00  0.0000000000000E+00  0.0000000000000E+00
192  1.9100000000000E+00  0.0000000000000E+00  0.0000000000000E+00
193  1.9200000000000E+00  0.0000000000000E+00  0.0000000000000E+00
194  1.9300000000000E+00  0.0000000000000E+00  0.0000000000000E+00
195  1.9400000000000E+00  0.0000000000000E+00  0.0000000000000E+00
196  1.9500000000000E+00  0.0000000000000E+00  0.0000000000000E+00
197  1.9600000000000E+00  0.0000000000000E+00  0.0000000000000E+00
198  1.9700000000000E+00  0.0000000000000E+00  0.0000000000000E+00
199  1.9800000000000E+00  0.0000000000000E+00  0.0000000000000E+00
200  1.9900000000000E+00  0.0000000000000E+00  0.0000000000000E+00
201  2.0000000000000E+00  0.0000000000000E+00  0.0000000000000E+00
202  2.0100000000000E+00  0.0000000000000E+00  0.0000000000000E+00
203  2.0200000000000E+00  0.0000000000000E+00  0.0000000000000E+00
204  2.0300000000000E+00  0.0000000000000E+00  0.0000000000000E+00
205  2.0400000000000E+00  0.0000000000000E+00  0.0000000000000E+00
206  2.0500000000000E+00  0.0000000000000E+00  0.0000000000000E+00
207  2.0600000000000E+00  0.0000000000000E+00  0.0000000000000E+00
208  2.0700000000000E+00  0.0000000000000E+00  0.0000000000000E+00
209  2.0800000000000E+00  0.0000000000000E+00  0.0000000000000E+00
210  2.0900000000000E+00  0.0000000000000E+00  0.0000000000000E+00
211  2.1000000000000E+00  0.0000000000000E+00  0.0000000000000E+00
212  2.1100000000000E+00  0.0000000000000E+00  0.0000000000000E+00
213  2.1200000000000E+00  0.0000000000000E+00  0.0000000000000E+00
214  2.1300000000000E+00  0.0000000000000E+00  0.0000000000000E+00
215  2.1400000000000E+00  0.0000000000000E+00  0.0000000000000E+00
216  2.1500000000000E+00  0.0000000000000E+00  0.0000000000000E+00
217  2.1600000000000E+00  0.0000000000000E+00  0.0000000000000E+00
218  2.1700000000000E+00  0.0000000000000E+00  0.0000000000000E+00
219  2.1800000000000E+00  0.0000000000000E+00  0.0000000000000E+00
220  2.1900000000000E+00  0.0000000000000E+00  0.0000000000000E+00
221  2.2000000000000E+00  0.0000000000000E+00  0.0000000000000E+00
222  2.2100000000000E+00  0.0000000000000E+00  0.0000000000000E+00
223  2.2200000000000E+00  0.0000000000000E+00  0.0000000000000E+00
224  2.2300000000000E+00  0.0000000000000E+00  0.0000000000000E+00
225  2.2400000000000E+00  0.0000000000000E+00  0.0000000000000E+00
226  2.2500000000000E+00  0.0000000000000E+00  0.0000000000000E+00
227  2.2600000000000E+00  0.0000000000000E+00  0.0000000000000E+00
228  2.2700000000000E+00  0.0000000000000E+00  0.0000000000000E+00
229  2.2800000000000E+00  0.0000000000000E+00  0.0000000000000E+00
230  2.2900000000000E+00  0.0000000000000E+00  0.0000000000000E+00
231  2.3000000000000E+00  0.0000000000000E+00  0.0000000000000E+00
232  2.3100000000000E+00  0.0000000000000E+00  0.0000000000000E+00
233  2.3200000000000E+00  0.0000000000000E+00  0.0000000000000E+00
234  2.3300000000000E+00  0.0000000000000E+00  0.0000000000000E+00
235  2.3400000000000E+00  0.0000000000000E+00  0.0000000000000E+00
236  2.3500000000000E+00  0.0000000000000E+00  0.0000000000000E+00
237  2.3600000000000E+00  0.0000000000000E+00  0.0000000000000E+00
238  2.3700000000000E+00  0.0000000000000E+00  0.0000000000000E+00
239  2.3800000000000E+00  0.0000000000000E+00  0.0000000000000E+00
240  2.3900000000000E+00  0.0000000000000E+00  0.0000000000000E+00
241  2.4000000000000E+00  0.0000000000000E+00  0.0000000000000E+00
242  2.4100000000000E+00  0.0000000000000E+00  0.0000000000000E+00
243  2.4200000000000E+00  0.0000000000000E+00  0.0000000000000E+00
244  2.4300000000000E+00  0.0000000000000E+00  0.0000000000000E+00
245  2.4400000000000E+00  0.0000000000000E+00  0.0000000000000E+00
246  2.4500000000000E+00  0.0000000000000E+00  0.0000000000000E+00
247  2.4600000000000E+00  0.0000000000000E+00  0.0000000000000E+00
248  2.4700000000000E+00  0.0000000000000E+00  0.0000000000000E+00
249  2.4800000000000E+00  0.0000000000000E+00  0.0000000000000E+00
250  2.4900000000000E+00  0.0000000000000E+00  0.0000000000000E+00
251  2.5000000000000E+00  0.0000000000000E+00  0.0000000000000E+00
252  2.5100000000000E+00  0.0000000000000E+00  0.0000000000000E+00
253  2.5200000000000E+00  0.0000000000000E+00  0.0000000000000E+00
254  2.5300000000000E+00  0.0000000000000E+00  0.0000000000000E+00
255  2.5400000000000E+00  0.0000000000000E+00  0.0000000000000E+00
256  2.5500000000000E+00  0.0000000000000E+00  0.0000000000000E+00
257  2.5600000000000E+00  0.0000000000000E+00  0.0000000000000E+00
258  2.5700000000000E+00  0.0000000000000E+00  0.0000000000000E+00
259  2.5800000000000E+00  0.0000000000000E+00  0.0000000000000E+00
260  2.5900000000000E+00  0.0000000000000E+00  0.0000000000000E+00
261  2.6000000000000E+00  0.0000000000000E+00  0.0000000000000E+00
262  2.6100000000000E+00  0.0000000000000E+00  0.0000000000000E+00
263  2.6200000000000E+00  0.0000000000000E+00  0.0000000000000E+00
264  2.6300000000000E+00  0.0000000000000E+00  0.0000000000000E+00
265  2.6400000000000E+00  0.0000000000000E+00  0.0000000000000E+00
266  2.6500000000000E+00  0.0000000000000E+00  0.0000000000000E+00
267  2.6600000000000E+00  0.0000000000000E+00  0.0000000000000E+00
268  2.6700000000000E+00  0.0000000000000E+00  0.0000000000000E+00
269  2.6800000000000E+00  0.0000000000000E+00  0.0000000000000E+00
270  2.6900000000000E+00  0.0000000000000E+00  0.0000000000000E+00
271  2.7000000000000E+00  0.0000000000000E+00  0.0000000000000E+00
272  2.7100000000000E+00  0.0000000000000E+00  0.0000000000000E+00
273  2.7200000000000E+00  0.0000000000000E+00  0.0000000000000E+00
274  2.7300000000000E+00  0.0000000000000E+00  0.0000000000000E+00
275  2.7400000000000E+00  0.0000000000000E+00  0.0000000000000E+00
276  2.7500000000000E+00  0.0000000000000E+00  0.0000000000000E+00
277  2.7600000000000E+00  0.0000000000000E+00  0.0000000000000E+00
278  2.7700000000000E+00  0.0000000000000E+00  0.0000000000000E+00
279  2.7800000000000E+00  0.0000000000000E+00  0.0000000000000E+00
280  2.7900000000000E+00  0.0000000000000E+00  0.0000000000000E+00
281  2.8000000000000E+00  0.0000000000000E+00  0.0000000000000E+00
282  2.8100000000000E+00  0.0000000000000E+00  0.0000000000000E+00
283  2.8200000000000E+00  0.0000000000000E+00  0.0000000000000E+00
284  2.8300000000000E+00  0.0000000000000E+00  0.0000000000000E+00
285  2.8400000000000E+00  0.0000000000000E+00  0.0000000000000E+00
286  2.8500000000000E+00  0.0000000000000E+00  0.0000000000000E+00
287  2.8600000000000E+00  0.0000000000000E+00  0.0000000000000E+00
288  2.8700000000000E+00  0.0000000000000E+00  0.0000000000000E+00
289  2.8800000000000E+00  0.0000000000000E+00  0.0000000000000E+00
290  2.8900000000000E+00  0.0000000000000E+00  0.0000000000000E+00
291  2.9000000000000E+00  0.0000000000000E+00  0.0000000000000E+00
292  2.9100000000000E+00  0.0000000000000E+00  0.0000000000000E+00
293  2.9200000000000E+00  0.0000000000000E+00  0.0000000000000E+00
294  2.9300000000000E+00  0.0000000000000E+00  0.0000000000000E+00
295  2.9400000000000E+00  0.0000000000000E+00  0.0000000000000E+00
296  2.9500000000000E+00  0.0000000000000E+00  0.0000000000000E+00
297  2.9600000000000E+00  0.0000000000000E+00  0.0000000000000E+00
298  2.9700000000000E+00  0.0000000000000E+00  0.0000000000000E+00
299  2.9800000000000E+00  0.0000000000000E+00  0.0000000000000E+00
300  2.9900000000000E+00  0.0000000000000E+00  0.0000000000000E+00
301  3.0000000000000E+00  0.0000000000000E+00  0.0000000000000E+00
302  3.0100000000000E+00  0.0000000000000E+00  0.0000000000000E+00
303  3.0200000000000E+00  0.0000000000000E+00  0.0000000000000E+00
304  3.0300000000000E+00  0.0000000000000E+00  0.0000000000000E+00
305  3.0400000000000E+00  0.0000000000000E+00  0.0000000000000E+00
306  3.0500000000000E+00  0.0000000000000E+00  0.0000000000000E+00
307  3.0600000000000E+00  0.0000000000000E+00  0.0000000000000E+00
308  3.0700000000000E+00  0.0000000000000E+00  0.0000000000000E+00
309  3.0800000000000E+00  0.0000000000000E+00  0.0000000000000E+00
310  3.0900000000000E+00  0.0000000000000E+00  0.0000000000000E+00
311  3.1000000000000E+00  0.0000000000000E+00  0.0000000000000E+00
312  3.1100000000000E+00  0.0000000000000E+00  0.0000000000000E+00
313  3.1200000000000E+00  0.0000000000000E+00  0.0000000000000E+00
314  3.1300000000000E+00  0.0000000000000E+00  0.0000000000000E+00
315  3.1400000000000E+00  0.0000000000000E+00  0.0000000000000E+00
316  3.1500000000000E+00  0.0000000000000E+00  0.0000000000000E+00
317  3.1600000000000E+00  0.0000000000000E+00  0.0000000000000E+00
318  3.1700000000000E+00  0.0000000000000E+00  0.0000000000000E+00
319  3.1800000000000E+00  0.0000000000000E+00  0.0000000000000E+00
320  3.1900000000000E+00  0.0000000000000E+00  0.0000000000000E+00
321  3.2000000000000E+00  0.0000000000000E+00  0.0000000000000E+00
322  3.2100000000000E+00  0.0000000000000E+00  0.0000000000000E+00
323  3.2200000000000E+00  0.0000000000000E+00  0.0000000000000E+00
324  3.2300000000000E+00  0.0000000000000E+00  0.0000000000000E+00
325  3.2400000000000E+00  0.0000000000000E+00  0.0000000000000E+00
326  3.2500000000000E+00  0.0000000000000E+00  0.0000000000000E+00
327  3.2600000000000E+00  0.0000000000000E+00  0.0000000000000E+00
328  3.2700000000000E+00  0.0000000000000E+00  0.0000000000000E+00
329  3.2800000000000E+00  0.0000000000000E+00  0.0000000000000E+00
330  3.2900000000000E+00  0.0000000000000E+00  0.0000000000000E+00
331  3.3000000000000E+00  0.0000000000000E+00  0.0000000000000E+00
332  3.3100000000000E+00  0.0000000000000E+00  0.0000000000000E+00
333  3.3200000000000E+00  0.0000000000000E+00  0.0000000000000E+00
334  3.3300000000000E+00  0.0000000000000E+00  0.0000000000000E+00
335  3.3400000000000E+00  0.0000000000000E+00  0.0000000000000E+00
336  3.3500000000000E+00  0.0000000000000E+00  0.0000000000000E+00
337  3.3600000000000E+00  0.0000000000000E+00  0.0000000000000E+00
338  3.3700000000000E+00  0.0000000000000E+00  0.0000000000000E+00
339  3.3800000000000E+00  0.0000000000000E+00  0.0000000000000E+00
340  3.3900000000000E+00  0.0000000000000E+00  0.0000000000000E+00
341  3.4000000000000E+00  0.0000000000000E+00  0.0000000000000E+00
342  3.4100000000000E+00  0.0000000000000E+00  0.0000000000000E+00
343  3.4200000000000E+00  0.0000000000000E+00  0.0000000000000E+00
344  3.4300000000000E+00  0.0000000000000E+00  0.0000000000000E+00
345  3.4400000000000E+00  0.0000000000000E+00  0.0000000000000E+00
346  3.4500000000000E+00  0.0000000000000E+00  0.0000000000000E+00
347  3.4600000000000E+00  0.0000000000000E+00  0.0000000000000E+00
348  3.4700000000000E+00  0.0000000000000E+00  0.0000000000000E+00
349  3.4800000000000E+00  0.0000000000000E+00  0.0000000000000E+00
350  3.4900000000000E+00  0.0000000000000E+00  0.0000000000000E+00
351  3.5000000000000E+00  0.0000000000000E+00  0.0000000000000E+00
352  3.5100000000000E+00  0.0000000000000E+00  0.0000000000000E+00
353  3.5200000000000E+00  0.0000000000000E+00  0.0000000000000E+00
354  3.5300000000000E+00  0.0000000000000E+00  0.0000000000000E+00
355  3.5400000000000E+00  0.0000000000000E+00  0.0000000000000E+00
356  3.5500000000000E+00  0.0000000000000E+00  0.0000000000000E+00
357  3.5600000000000E+00  0.0000000000000E+00  0.0000000000000E+00
358  3.5700000000000E+00  0.0000000000000E+00  0.0000000000000E+00
359  3.5800000000000E+00  0.0000000000000E+00  0.0000000000000E+00
360  3.5900000000000E+00  0.0000000000000E+00  0.0000000000000E+00
361  3.6000000000000E+00  0.0000000000000E+00  0.0000000000000E+00
362  3.6100000000000E+00  0.0000000000000E+00  0.0000000000000E+00
363  3.6200000000000E+00  0.0000000000000E+00  0.0000000000000E+00
364  3.6300000000000E+00  0.0000000000000E+00  0.0000000000000E+00
365  3.6400000000000E+00  0.0000000000000E+00  0.0000000000000E+00
366  3.6500000000000E+00  0.0000000000000E+00  0.0000000000000E+00
367  3.6600000000000E+00  0.0000000000000E+00  0.0000000000000E+00
368  3.6700000000000E+00  0.0000000000000E+00  0.0000000000000E+00
369  3.6800000000000E+00  0.0000000000000E+00  0.0000000000000E+00
370  3.6900000000000E+00  0.0000000000000E+00  0.0000000000000E+00
371  3.7000000000000E+00  0.0000000000000E+00  0.0000000000000E+00
372  3.7100000000000E+00  0.0000000000000E+00  0.0000000000000E+00
373  3.7200000000000E+00  0.0000000000000E+00  0.0000000000000E+00
374  3.7300000000000E+00  0.0000000000000E+00  0.0000000000000E+00
375  3.7400000000000E+00  0.0000000000000E+00  0.0000000000000E+00
376  3.7500000000000E+00  0.0000000000000E+00  0.0000000000000E+00
377  3.7600000000000E+00  0.0000000000000E+00  0.0000000000000E+00
378  3.7700000000000E+00  0.0000000000000E+00  0.0000000000000E+00
379  3.7800000000000E+00  0.0000000000000E+00  0.0000000000000E+00
380  3.7900000000000E+00  0.0000000000000E+00  0.0000000000000E+00
381  3.8000000000000E+00  0.0000000000000E+00  0.0000000000000E+00
382  3.8100000000000E+00  0.0000000000000E+00  0.0000000000000E+00
383  3.8200000000000E+00  0.0000000000000E+00  0.0000000000000E+00
384  3.8300000000000E+00  0.0000000000000E+00  0.0000000000000E+00
385  3.8400000000000E+00  0.0000000000000E+00  0.0000000000000E+00
386  3.8500000000000E+00  0.0000000000000E+00  0.0000000000000E+00
387  3.8600000000000E+00  0.0000000000000E+00  0.0000000000000E+00
388  3.8700000000000E+00  0.0000000000000E+00  0.0000000000000E+00
389  3.8800000000000E+00  0.0000000000000E+00  0.0000000000000E+00
390  3.8900000000000E+00  0.0000000000000E+00  0.0000000000000E+00
391  3.9000000000000E+00  0.0000000000000E+00  0.0000000000000E+00
392  3.9100000000000E+00  0.0000000000000E+00  0.0000000000000E+00
393  3.9200000000000E+00  0.0000000000000E+00  0.0000000000000E+00
394  3.9300000000000E+00  0.0000000000000E+00  0.0000000000000E+00
395  3.9400000000000E+00  0.0000000000000E+00  0.0000000000000E+00
396  3.9500000000000E+00  0.0000000000000E+00  0.0000000000000E+00
397  3.9600000000000E+00  0.0000000000000E+00  0.0000000000000E+00
398  3.9700000000000E+00  0.0000000000000E+00  0.0000000000000E+00
399  3.9800000000000E+00  0.0000000000000E+00  0.0000000000000E+00
400  3.9900000000000E+00  0.0000000000000E+00  0.0000000000000E+00
1                         3.0498783063276E+00  4.7179906936283E-01
1  0.0000000000000E+00  2.9609786428297E-09 -7.6147358418766E-09
2  1.0000000000000E-02  1.9934890473248E-03 -1.3265858567395E-03
3  2.0000000000000E-02  7.9617372550917E-03 -5.2880934585880E-03
4  3.0000000000000E-02  1.7868206909929E-02 -1.1830039623582E-02
5  4.0000000000000E-02  3.1652397089980E-02 -2.0862503736288E-02
6  5.0000000000000E-02  4.9230430653620E-02 -3.2261439491870E-02
7  6.0000000000000E-02  7.0495864298913E-02 -4.5870481028724E-02
8  7.0000000000000E-02  9.5320710198592E-02 -6.1503213757162E-02
9  8.0000000000000E-02  1.2355665475436E-01 -7.8945872576939E-02
10  9.0000000000000E-02  1.5503645728897E-01 -9.7960423194161E-02
11  1.0000000000000E-01  1.8957550904836E-01 -1.1828797601587E-01
12  1.1000000000000E-01  2.2697353075895E-01 -1.3965247672395E-01
13  1.2000000000000E-01  2.6701638521182E-01 -1.6176461320299E-01
14  1.3000000000000E-01  3.0947797995272E-01 -1.8432587509083E-01
15  1.4000000000000E-01  3.5412223416956E-01 -2.0703269989933E-01
16  1.5000000000000E-01  4.0070508329844E-01 -2.2958063845084E-01
17  1.6000000000000E-01  4.4897649472873E-01 -2.5166847232105E-01
18  1.7000000000000E-01  4.9868246827324E-01 -2.7300221706555E-01
19  1.8000000000000E-01  5.4956699577939E-01 -2.9329894722602E-01
20  1.9000000000000E-01  6.0137395537605E-01 -3.1229038241902E-01
21  2.0000000000000E-01  6.5384891735876E-01 -3.2972617815585E-01
22  2.1000000000000E-01  7.0674084058802E-01 -3.4537687034934E-01
23  2.2000000000000E-01  7.5980364047712E-01 -3.5903642864585E-01
24  2.3000000000000E-01  8.1279761214032E-01 -3.7052438067107E-01
25  2.4000000000000E-01  8.6549069501583E-01 -3.7968747688118E-01
26  2.5000000000000E-01  9.1765956822301E-01 -3.8640087383397E-01
27  2.6000000000000E-01  9.6909056900942E-01 -3.9056882220155E-01
28  2.7000000000000E-01  1.0195804298364E+00 -3.9212485458928E-01
29  2.8000000000000E-01  1.0689368328873E+00 -3.9103147705508E-01
30  2.9000000000000E-01  1.1169787840039E+00 -3.8727937698672E-01
31  3.0000000000000E-01  1.1635368112068E+00 -3.8088616853901E-01
32  3.1000000000000E-01  1.2084529959853E+00 -3.7189470501029E-01
33  3.2000000000000E-01  1.2515808483864E+00 -3.6037099520322E-01
34  3.3000000000000E-01  1.2927850395589E+00 -3.4640176783493E-01
35  3.4000000000000E-01  1.3319410077557E+00 -3.3009173430882E-01
36  3.5000000000000E-01  1.3689344558272E+00 -3.1156060552516E-01
37  3.6000000000000E-01  1.4036607599281E+00 -2.9093992278916E-01
38  3.7000000000000E-01  1.4360243104526E+00 -2.6836976619429E-01
39  3.8000000000000E-01  1.4659378071178E+00 -2.4399540605037E-01
40  3.9000000000000E-01  1.4933215305823E+00 -2.1796396394574E-01
41  4.0000000000000E-01  1.5181026130359E+00 -1.9042114985669E-01
42  4.1000000000000E-01  1.5402143298061E+00 -1.6150814033958E-01
43  4.2000000000000E-01  1.5595954332091E+00 -1.3135866028031E-01