V     ONCVPSP-3.2.3.1  r_core=   1.31479   1.31479   1.66904
23.0000     13.0000      170504    zatom,zion,pspd
8      11   2     4   600     0    pspcod,pspxc,lmax,lloc,mmax,r2well
5.99000000  5.00000000  0.00000000    rchrg fchrg qchrg
2     2     2     0     0    nproj
1     1           extension_switch
0                         1.1890527395753E+01  1.4037997356639E+00
1  0.0000000000000E+00 -1.6514062339823E-09  5.4771610025206E-09
2  1.0000000000000E-02  9.1241362082176E-02 -4.4667636857426E-02
3  2.0000000000000E-02  1.8218120286304E-01 -8.8889534984095E-02
4  3.0000000000000E-02  2.7251999353214E-01 -1.3222516149073E-01
5  4.0000000000000E-02  3.6196216458789E-01 -1.7424431281557E-01
6  5.0000000000000E-02  4.5021802174110E-01 -2.1453207493005E-01
7  6.0000000000000E-02  5.3700558651798E-01 -2.5269354217593E-01
8  7.0000000000000E-02  6.2205233844076E-01 -2.8835822083857E-01
9  8.0000000000000E-02  7.0509683731526E-01 -3.2118404903832E-01
10  9.0000000000000E-02  7.8589020616479E-01 -3.5086097118754E-01
11  1.0000000000000E-01  8.6419745768212E-01 -3.7711401300003E-01
12  1.1000000000000E-01  9.3979864968709E-01 -3.9970581171625E-01
13  1.2000000000000E-01  1.0124898579293E+00 -4.1843856567267E-01
14  1.3000000000000E-01  1.0820839576153E+00 -4.3315537742956E-01
15  1.4000000000000E-01  1.1484112082115E+00 -4.4374097520447E-01
16  1.5000000000000E-01  1.2113196393269E+00 -4.5012180815196E-01
17  1.6000000000000E-01  1.2706752387505E+00 -4.5226552189652E-01
18  1.7000000000000E-01  1.3263619469544E+00 -4.5017983147189E-01
19  1.8000000000000E-01  1.3782814655151E+00 -4.4391081925802E-01
20  1.9000000000000E-01  1.4263528898978E+00 -4.3354069545069E-01
21  2.0000000000000E-01  1.4705121798379E+00 -4.1918506787158E-01
22  2.1000000000000E-01  1.5107114830911E+00 -4.0098977636332E-01
23  2.2000000000000E-01  1.5469183305630E+00 -3.7912735446117E-01
24  2.3000000000000E-01  1.5791147227281E+00 -3.5379318735685E-01
25  2.4000000000000E-01  1.6072961287789E+00 -3.2520144025365E-01
26  2.5000000000000E-01  1.6314704210697E+00 -2.9358083496093E-01
27  2.6000000000000E-01  1.6516567681258E+00 -2.5917035491750E-01
28  2.7000000000000E-01  1.6678845097583E+00 -2.2221495972217E-01
29  2.8000000000000E-01  1.6801920376489E+00 -1.8296138966042E-01
30  2.9000000000000E-01  1.6886257041604E+00 -1.4165413865587E-01
31  3.0000000000000E-01  1.6932387810824E+00 -9.8531670571683E-02
32  3.1000000000000E-01  1.6940904885684E+00 -5.3822948897885E-02
33  3.2000000000000E-01  1.6912451126764E+00 -7.7443436634105E-03
34  3.3000000000000E-01  1.6847712277303E+00  3.9503027984107E-02
35  3.4000000000000E-01  1.6747410372009E+00  8.7735479561205E-02
36  3.5000000000000E-01  1.6612298440273E+00  1.3678841282463E-01
37  3.6000000000000E-01  1.6443156582870E+00  1.8651742673491E-01
38  3.7000000000000E-01  1.6240789469567E+00  2.3679886015151E-01
39  3.8000000000000E-01  1.6006025272239E+00  2.8752976174348E-01
40  3.9000000000000E-01  1.5739716014834E+00  3.3862729193550E-01
41  4.0000000000000E-01  1.5442739288410E+00  3.9002757302991E-01
42  4.1000000000000E-01  1.5116001247141E+00  4.4168401474729E-01
43  4.2000000000000E-01  1.4760440770230E+00  4.9356515310529E-01
44  4.3000000000000E-01  1.4377034645753E+00  5.4565205060710E-01
45  4.4000000000000E-01  1.3966803606037E+00  5.9793531494811E-01
46  4.5000000000000E-01  1.3530819020940E+00  6.5041180169266E-01
47  4.6000000000000E-01  1.3070210035662E+00  7.0308107346122E-01
48  4.7000000000000E-01  1.2586170924048E+00  7.5594169395846E-01
49  4.8000000000000E-01  1.2079968416970E+00  8.0898743954352E-01
50  4.9000000000000E-01  1.1552948758676E+00  8.6220351389732E-01
51  5.0000000000000E-01  1.1006544242110E+00  9.1556285260828E-01
52  5.1000000000000E-01  1.0442278977270E+00  9.6902260413352E-01
53  5.2000000000000E-01  9.8617736547123E-01  1.0225208715805E+00
54  5.3000000000000E-01  9.2667490792259E-01  1.0759737961179E+00
55  5.4000000000000E-01  8.6590282664142E-01  1.1292730575940E+00
56  5.5000000000000E-01  8.0405369170919E-01  1.1822838612043E+00
57  5.6000000000000E-01  7.4133021107484E-01  1.2348434709092E+00
58  5.7000000000000E-01  6.7794490894931E-01  1.2867603408578E+00
59  5.8000000000000E-01  6.1411960371973E-01  1.3378138855462E+00
60  5.9000000000000E-01  5.5008467947709E-01  1.3877549178934E+00
61  6.0000000000000E-01  4.8607814905687E-01  1.4363067722032E+00
62  6.1000000000000E-01  4.2234451047190E-01  1.4831671161271E+00
63  6.2000000000000E-01  3.5913340264277E-01  1.5280104426574E+00
64  6.3000000000000E-01  2.9669807037708E-01  1.5704912199586E+00
65  6.4000000000000E-01  2.3529365252307E-01  1.6102476637657E+00
66  6.5000000000000E-01  1.7517531102978E-01  1.6469060844765E+00
67  6.6000000000000E-01  1.1659622226953E-01  1.6800857489674E+00
68  6.7000000000000E-01  5.9805455287199E-02  1.7094041860183E+00
69  6.8000000000000E-01  5.0457646006295E-03  1.7344828541438E+00
70  6.9000000000000E-01 -4.7448672262191E-02  1.7549530817648E+00
71  7.0000000000000E-01 -9.7454540227158E-02  1.7704621822949E+00
72  7.1000000000000E-01 -1.4476166130739E-01  1.7806796409456E+00
73  7.2000000000000E-01 -1.8917522355870E-01  1.7853032660261E+00
74  7.3000000000000E-01 -2.3051792907373E-01  1.7840651953121E+00
75  7.4000000000000E-01 -2.6863202590109E-01  1.7767376477878E+00
76  7.5000000000000E-01 -3.0338118955198E-01  1.7631383127222E+00
77  7.6000000000000E-01 -3.3465222114226E-01  1.7431352716559E+00
78  7.7000000000000E-01 -3.6235653120157E-01  1.7166513544016E+00
79  7.8000000000000E-01 -3.8643138073170E-01  1.6836678375322E+00
80  7.9000000000000E-01 -4.0684085418835E-01  1.6442274029429E+00
81  8.0000000000000E-01 -4.2357654265428E-01  1.5984362848312E+00
82  8.1000000000000E-01 -4.3665791949394E-01  1.5464655455994E+00
83  8.2000000000000E-01 -4.4613239519138E-01  1.4885514346306E+00
84  8.3000000000000E-01 -4.5207504279150E-01  1.4249947983724E+00
85  8.4000000000000E-01 -4.5458799031783E-01  1.3561595254341E+00
86  8.5000000000000E-01 -4.5379948164548E-01  1.2824700262343E+00
87  8.6000000000000E-01 -4.4986261248124E-01  1.2044077628296E+00
88  8.7000000000000E-01 -4.4295375325634E-01  1.1225068606556E+00
89  8.8000000000000E-01 -4.3327067578157E-01  1.0373488497185E+00
90  8.9000000000000E-01 -4.2103040536263E-01  9.4955659802746E-01
91  9.0000000000000E-01 -4.0646682463922E-01  8.5978751446282E-01
92  9.1000000000000E-01 -3.8982805961221E-01  7.6872611158305E-01
93  9.2000000000000E-01 -3.7137368208338E-01  6.7707603083286E-01
94  9.3000000000000E-01 -3.5137176598018E-01  5.8555164299703E-01
95  9.4000000000000E-01 -3.3009583771520E-01  4.9486934536224E-01
96  9.5000000000000E-01 -3.0782176277162E-01  4.0573868369014E-01
97  9.6000000000000E-01 -2.8482461208741E-01  3.1885343168405E-01
98  9.7000000000000E-01 -2.6137555249593E-01  2.3488276303994E-01
99  9.8000000000000E-01 -2.3773880542348E-01  1.5446265124575E-01
100  9.9000000000000E-01 -2.1416871727773E-01  7.8187630141798E-02
101  1.0000000000000E+00 -1.9090698346129E-01  6.6030437942332E-03
102  1.0100000000000E+00 -1.6818006575460E-01 -5.9802092404042E-02
103  1.0200000000000E+00 -1.4619683984694E-01 -1.2060150657449E-01
104  1.0300000000000E+00 -1.2514650642741E-01 -1.7543725867399E-01
105  1.0400000000000E+00 -1.0519679503628E-01 -2.2402441285948E-01
106  1.0500000000000E+00 -8.6492485243669E-02 -2.6615471883813E-01
107  1.0600000000000E+00 -6.9154264733308E-02 -3.0169924266023E-01
108  1.0700000000000E+00 -5.3277938343395E-02 -3.3060990462910E-01
109  1.0800000000000E+00 -3.8933996380813E-02 -3.5291989989970E-01
110  1.0900000000000E+00 -2.6167545023178E-02 -3.6874299452289E-01
111  1.1000000000000E+00 -1.4998594951825E-02 -3.7827171055521E-01
112  1.1100000000000E+00 -5.4226990114993E-03 -3.8177443059068E-01
113  1.1200000000000E+00  2.5880767594075E-03 -3.7959147227495E-01
114  1.1300000000000E+00  9.0838690268349E-03 -3.7213019790592E-01
115  1.1400000000000E+00  1.4135446768344E-02 -3.5985924454033E-01
116  1.1500000000000E+00  1.7832385596049E-02 -3.4330197326966E-01
117  1.1600000000000E+00  2.0281022654894E-02 -3.2302925153447E-01
118  1.1700000000000E+00  2.1602232513260E-02 -2.9965169758002E-01
119  1.1800000000000E+00  2.1929057303011E-02 -2.7381148648541E-01
120  1.1900000000000E+00  2.1404280002862E-02 -2.4617402332382E-01
121  1.2000000000000E+00  2.0177772058310E-02 -2.1741883273417E-01
122  1.2100000000000E+00  1.8404484189456E-02 -1.8823286861866E-01
123  1.2200000000000E+00  1.6240876959470E-02 -1.5929798397540E-01
124  1.2300000000000E+00  1.3839789076847E-02 -1.3127258144540E-01
125  1.2400000000000E+00  1.1345083991948E-02 -1.0477292422154E-01
126  1.2500000000000E+00  8.8880818679024E-03 -8.0361222963023E-02
127  1.2600000000000E+00  6.5854893987117E-03 -5.8539359494898E-02
128  1.2700000000000E+00  4.5373754049834E-03 -3.9744151785459E-02
129  1.2800000000000E+00  2.8244950438038E-03 -2.4335117746232E-02
130  1.2900000000000E+00  1.4962572676026E-03 -1.2511439457050E-02
131  1.3000000000000E+00  6.2472930308136E-04 -4.7166884884216E-03
132  1.3100000000000E+00  2.2251764830554E-04 -1.0318944412762E-03
133  1.3200000000000E+00  6.7356743262712E-05  1.9353284161961E-05
134  1.3300000000000E+00  1.9264364010772E-06  8.7565791943650E-06
135  1.3400000000000E+00 -4.9931280530082E-06 -3.9506454722575E-05
136  1.3500000000000E+00  1.2466904258759E-06  4.0440745982471E-06
137  1.3600000000000E+00  7.3776057629912E-07  3.0609870513573E-06
138  1.3700000000000E+00 -3.8149526516280E-07  8.9673280903432E-07
139  1.3800000000000E+00  0.0000000000000E+00  0.0000000000000E+00
140  1.3900000000000E+00  0.0000000000000E+00  0.0000000000000E+00
141  1.4000000000000E+00  0.0000000000000E+00  0.0000000000000E+00
142  1.4100000000000E+00  0.0000000000000E+00  0.0000000000000E+00
143  1.4200000000000E+00  0.0000000000000E+00  0.0000000000000E+00
144  1.4300000000000E+00  0.0000000000000E+00  0.0000000000000E+00
145  1.4400000000000E+00  0.0000000000000E+00  0.0000000000000E+00
146  1.4500000000000E+00  0.0000000000000E+00  0.0000000000000E+00
147  1.4600000000000E+00  0.0000000000000E+00  0.0000000000000E+00
148  1.4700000000000E+00  0.0000000000000E+00  0.0000000000000E+00
149  1.4800000000000E+00  0.0000000000000E+00  0.0000000000000E+00
150  1.4900000000000E+00  0.0000000000000E+00  0.0000000000000E+00
151  1.5000000000000E+00  0.0000000000000E+00  0.0000000000000E+00
152  1.5100000000000E+00  0.0000000000000E+00  0.0000000000000E+00
153  1.5200000000000E+00  0.0000000000000E+00  0.0000000000000E+00
154  1.5300000000000E+00  0.0000000000000E+00  0.0000000000000E+00
155  1.5400000000000E+00  0.0000000000000E+00  0.0000000000000E+00
156  1.5500000000000E+00  0.0000000000000E+00  0.0000000000000E+00
157  1.5600000000000E+00  0.0000000000000E+00  0.0000000000000E+00
158  1.5700000000000E+00  0.0000000000000E+00  0.0000000000000E+00
159  1.5800000000000E+00  0.0000000000000E+00  0.0000000000000E+00
160  1.5900000000000E+00  0.0000000000000E+00  0.0000000000000E+00
161  1.6000000000000E+00  0.0000000000000E+00  0.0000000000000E+00
162  1.6100000000000E+00  0.0000000000000E+00  0.0000000000000E+00
163  1.6200000000000E+00  0.0000000000000E+00  0.0000000000000E+00
164  1.6300000000000E+00  0.0000000000000E+00  0.0000000000000E+00
165  1.6400000000000E+00  0.0000000000000E+00  0.0000000000000E+00
166  1.6500000000000E+00  0.0000000000000E+00  0.0000000000000E+00
167  1.6600000000000E+00  0.0000000000000E+00  0.0000000000000E+00
168  1.6700000000000E+00  0.0000000000000E+00  0.0000000000000E+00
169  1.6800000000000E+00  0.0000000000000E+00  0.0000000000000E+00
170  1.6900000000000E+00  0.0000000000000E+00  0.0000000000000E+00
171  1.7000000000000E+00  0.0000000000000E+00  0.0000000000000E+00
172  1.7100000000000E+00  0.0000000000000E+00  0.0000000000000E+00
173  1.7200000000000E+00  0.0000000000000E+00  0.0000000000000E+00
174  1.7300000000000E+00  0.0000000000000E+00  0.0000000000000E+00
175  1.7400000000000E+00  0.0000000000000E+00  0.0000000000000E+00
176  1.7500000000000E+00  0.0000000000000E+00  0.0000000000000E+00
177  1.7600000000000E+00  0.0000000000000E+00  0.0000000000000E+00
178  1.7700000000000E+00  0.0000000000000E+00  0.0000000000000E+00
179  1.7800000000000E+00  0.0000000000000E+00  0.0000000000000E+00
180  1.7900000000000E+00  0.0000000000000E+00  0.0000000000000E+00
181  1.8000000000000E+00  0.0000000000000E+00  0.0000000000000E+00
182  1.8100000000000E+00  0.0000000000000E+00  0.0000000000000E+00
183  1.8200000000000E+00  0.0000000000000E+00  0.0000000000000E+00
184  1.8300000000000E+00  0.0000000000000E+00  0.0000000000000E+00
185  1.8400000000000E+00  0.0000000000000E+00  0.0000000000000E+00
186  1.8500000000000E+00  0.0000000000000E+00  0.0000000000000E+00
187  1.8600000000000E+00  0.0000000000000E+00  0.0000000000000E+00
188  1.8700000000000E+00  0.0000000000000E+00  0.0000000000000E+00
189  1.8800000000000E+00  0.0000000000000E+00  0.0000000000000E+00
190  1.8900000000000E+00  0.0000000000000E+00  0.0000000000000E+00
191  1.9000000000000E+00  0.0000000000000E+00  0.0000000000000E+00
192  1.9100000000000E+00  0.0000000000000E+00  0.0000000000000E+00
193  1.9200000000000E+00  0.0000000000000E+00  0.0000000000000E+00
194  1.9300000000000E+00  0.0000000000000E+00  0.0000000000000E+00
195  1.9400000000000E+00  0.0000000000000E+00  0.0000000000000E+00
196  1.9500000000000E+00  0.0000000000000E+00  0.0000000000000E+00
197  1.9600000000000E+00  0.0000000000000E+00  0.0000000000000E+00
198  1.9700000000000E+00  0.0000000000000E+00  0.0000000000000E+00
199  1.9800000000000E+00  0.0000000000000E+00  0.0000000000000E+00
200  1.9900000000000E+00  0.0000000000000E+00  0.0000000000000E+00
201  2.0000000000000E+00  0.0000000000000E+00  0.0000000000000E+00
202  2.0100000000000E+00  0.0000000000000E+00  0.0000000000000E+00
203  2.0200000000000E+00  0.0000000000000E+00  0.0000000000000E+00
204  2.0300000000000E+00  0.0000000000000E+00  0.0000000000000E+00
205  2.0400000000000E+00  0.0000000000000E+00  0.0000000000000E+00
206  2.0500000000000E+00  0.0000000000000E+00  0.0000000000000E+00
207  2.0600000000000E+00  0.0000000000000E+00  0.0000000000000E+00
208  2.0700000000000E+00  0.0000000000000E+00  0.0000000000000E+00
209  2.0800000000000E+00  0.0000000000000E+00  0.0000000000000E+00
210  2.0900000000000E+00  0.0000000000000E+00  0.0000000000000E+00
211  2.1000000000000E+00  0.0000000000000E+00  0.0000000000000E+00
212  2.1100000000000E+00  0.0000000000000E+00  0.0000000000000E+00
213  2.1200000000000E+00  0.0000000000000E+00  0.0000000000000E+00
214  2.1300000000000E+00  0.0000000000000E+00  0.0000000000000E+00
215  2.1400000000000E+00  0.0000000000000E+00  0.0000000000000E+00
216  2.1500000000000E+00  0.0000000000000E+00  0.0000000000000E+00
217  2.1600000000000E+00  0.0000000000000E+00  0.0000000000000E+00
218  2.1700000000000E+00  0.0000000000000E+00  0.0000000000000E+00
219  2.1800000000000E+00  0.0000000000000E+00  0.0000000000000E+00
220  2.1900000000000E+00  0.0000000000000E+00  0.0000000000000E+00
221  2.2000000000000E+00  0.0000000000000E+00  0.0000000000000E+00
222  2.2100000000000E+00  0.0000000000000E+00  0.0000000000000E+00
223  2.2200000000000E+00  0.0000000000000E+00  0.0000000000000E+00
224  2.2300000000000E+00  0.0000000000000E+00  0.0000000000000E+00
225  2.2400000000000E+00  0.0000000000000E+00  0.0000000000000E+00
226  2.2500000000000E+00  0.0000000000000E+00  0.0000000000000E+00
227  2.2600000000000E+00  0.0000000000000E+00  0.0000000000000E+00
228  2.2700000000000E+00  0.0000000000000E+00  0.0000000000000E+00
229  2.2800000000000E+00  0.0000000000000E+00  0.0000000000000E+00
230  2.2900000000000E+00  0.0000000000000E+00  0.0000000000000E+00
231  2.3000000000000E+00  0.0000000000000E+00  0.0000000000000E+00
232  2.3100000000000E+00  0.0000000000000E+00  0.0000000000000E+00
233  2.3200000000000E+00  0.0000000000000E+00  0.0000000000000E+00
234  2.3300000000000E+00  0.0000000000000E+00  0.0000000000000E+00
235  2.3400000000000E+00  0.0000000000000E+00  0.0000000000000E+00
236  2.3500000000000E+00  0.0000000000000E+00  0.0000000000000E+00
237  2.3600000000000E+00  0.0000000000000E+00  0.0000000000000E+00
238  2.3700000000000E+00  0.0000000000000E+00  0.0000000000000E+00
239  2.3800000000000E+00  0.0000000000000E+00  0.0000000000000E+00
240  2.3900000000000E+00  0.0000000000000E+00  0.0000000000000E+00
241  2.4000000000000E+00  0.0000000000000E+00  0.0000000000000E+00
242  2.4100000000000E+00  0.0000000000000E+00  0.0000000000000E+00
243  2.4200000000000E+00  0.0000000000000E+00  0.0000000000000E+00
244  2.4300000000000E+00  0.0000000000000E+00  0.0000000000000E+00
245  2.4400000000000E+00  0.0000000000000E+00  0.0000000000000E+00
246  2.4500000000000E+00  0.0000000000000E+00  0.0000000000000E+00
247  2.4600000000000E+00  0.0000000000000E+00  0.0000000000000E+00
248  2.4700000000000E+00  0.0000000000000E+00  0.0000000000000E+00
249  2.4800000000000E+00  0.0000000000000E+00  0.0000000000000E+00
250  2.4900000000000E+00  0.0000000000000E+00  0.0000000000000E+00
251  2.5000000000000E+00  0.0000000000000E+00  0.0000000000000E+00
252  2.5100000000000E+00  0.0000000000000E+00  0.0000000000000E+00
253  2.5200000000000E+00  0.0000000000000E+00  0.0000000000000E+00
254  2.5300000000000E+00  0.0000000000000E+00  0.0000000000000E+00
255  2.5400000000000E+00  0.0000000000000E+00  0.0000000000000E+00
256  2.5500000000000E+00  0.0000000000000E+00  0.0000000000000E+00
257  2.5600000000000E+00  0.0000000000000E+00  0.0000000000000E+00
258  2.5700000000000E+00  0.0000000000000E+00  0.0000000000000E+00
259  2.5800000000000E+00  0.0000000000000E+00  0.0000000000000E+00
260  2.5900000000000E+00  0.0000000000000E+00  0.0000000000000E+00
261  2.6000000000000E+00  0.0000000000000E+00  0.0000000000000E+00
262  2.6100000000000E+00  0.0000000000000E+00  0.0000000000000E+00
263  2.6200000000000E+00  0.0000000000000E+00  0.0000000000000E+00
264  2.6300000000000E+00  0.0000000000000E+00  0.0000000000000E+00
265  2.6400000000000E+00  0.0000000000000E+00  0.0000000000000E+00
266  2.6500000000000E+00  0.0000000000000E+00  0.0000000000000E+00
267  2.6600000000000E+00  0.0000000000000E+00  0.0000000000000E+00
268  2.6700000000000E+00  0.0000000000000E+00  0.0000000000000E+00
269  2.6800000000000E+00  0.0000000000000E+00  0.0000000000000E+00
270  2.6900000000000E+00  0.0000000000000E+00  0.0000000000000E+00
271  2.7000000000000E+00  0.0000000000000E+00  0.0000000000000E+00
272  2.7100000000000E+00  0.0000000000000E+00  0.0000000000000E+00
273  2.7200000000000E+00  0.0000000000000E+00  0.0000000000000E+00
274  2.7300000000000E+00  0.0000000000000E+00  0.0000000000000E+00
275  2.7400000000000E+00  0.0000000000000E+00  0.0000000000000E+00
276  2.7500000000000E+00  0.0000000000000E+00  0.0000000000000E+00
277  2.7600000000000E+00  0.0000000000000E+00  0.0000000000000E+00
278  2.7700000000000E+00  0.0000000000000E+00  0.0000000000000E+00
279  2.7800000000000E+00  0.0000000000000E+00  0.0000000000000E+00
280  2.7900000000000E+00  0.0000000000000E+00  0.0000000000000E+00
281  2.8000000000000E+00  0.0000000000000E+00  0.0000000000000E+00
282  2.8100000000000E+00  0.0000000000000E+00  0.0000000000000E+00
283  2.8200000000000E+00  0.0000000000000E+00  0.0000000000000E+00
284  2.8300000000000E+00  0.0000000000000E+00  0.0000000000000E+00
285  2.8400000000000E+00  0.0000000000000E+00  0.0000000000000E+00
286  2.8500000000000E+00  0.0000000000000E+00  0.0000000000000E+00
287  2.8600000000000E+00  0.0000000000000E+00  0.0000000000000E+00
288  2.8700000000000E+00  0.0000000000000E+00  0.0000000000000E+00
289  2.8800000000000E+00  0.0000000000000E+00  0.0000000000000E+00
290  2.8900000000000E+00  0.0000000000000E+00  0.0000000000000E+00
291  2.9000000000000E+00  0.0000000000000E+00  0.0000000000000E+00
292  2.9100000000000E+00  0.0000000000000E+00  0.0000000000000E+00
293  2.9200000000000E+00  0.0000000000000E+00  0.0000000000000E+00
294  2.9300000000000E+00  0.0000000000000E+00  0.0000000000000E+00
295  2.9400000000000E+00  0.0000000000000E+00  0.0000000000000E+00
296  2.9500000000000E+00  0.0000000000000E+00  0.0000000000000E+00
297  2.9600000000000E+00  0.0000000000000E+00  0.0000000000000E+00
298  2.9700000000000E+00  0.0000000000000E+00  0.0000000000000E+00
299  2.9800000000000E+00  0.0000000000000E+00  0.0000000000000E+00
300  2.9900000000000E+00  0.0000000000000E+00  0.0000000000000E+00
301  3.0000000000000E+00  0.0000000000000E+00  0.0000000000000E+00
302  3.0100000000000E+00  0.0000000000000E+00  0.0000000000000E+00
303  3.0200000000000E+00  0.0000000000000E+00  0.0000000000000E+00
304  3.0300000000000E+00  0.0000000000000E+00  0.0000000000000E+00
305  3.0400000000000E+00  0.0000000000000E+00  0.0000000000000E+00
306  3.0500000000000E+00  0.0000000000000E+00  0.0000000000000E+00
307  3.0600000000000E+00  0.0000000000000E+00  0.0000000000000E+00
308  3.0700000000000E+00  0.0000000000000E+00  0.0000000000000E+00
309  3.0800000000000E+00  0.0000000000000E+00  0.0000000000000E+00
310  3.0900000000000E+00  0.0000000000000E+00  0.0000000000000E+00
311  3.1000000000000E+00  0.0000000000000E+00  0.0000000000000E+00
312  3.1100000000000E+00  0.0000000000000E+00  0.0000000000000E+00
313  3.1200000000000E+00  0.0000000000000E+00  0.0000000000000E+00
314  3.1300000000000E+00  0.0000000000000E+00  0.0000000000000E+00
315  3.1400000000000E+00  0.0000000000000E+00  0.0000000000000E+00
316  3.1500000000000E+00  0.0000000000000E+00  0.0000000000000E+00
317  3.1600000000000E+00  0.0000000000000E+00  0.0000000000000E+00
318  3.1700000000000E+00  0.0000000000000E+00  0.0000000000000E+00
319  3.1800000000000E+00  0.0000000000000E+00  0.0000000000000E+00
320  3.1900000000000E+00  0.0000000000000E+00  0.0000000000000E+00
321  3.2000000000000E+00  0.0000000000000E+00  0.0000000000000E+00
322  3.2100000000000E+00  0.0000000000000E+00  0.0000000000000E+00
323  3.2200000000000E+00  0.0000000000000E+00  0.0000000000000E+00
324  3.2300000000000E+00  0.0000000000000E+00  0.0000000000000E+00
325  3.2400000000000E+00  0.0000000000000E+00  0.0000000000000E+00
326  3.2500000000000E+00  0.0000000000000E+00  0.0000000000000E+00
327  3.2600000000000E+00  0.0000000000000E+00  0.0000000000000E+00
328  3.2700000000000E+00  0.0000000000000E+00  0.0000000000000E+00
329  3.2800000000000E+00  0.0000000000000E+00  0.0000000000000E+00
330  3.2900000000000E+00  0.0000000000000E+00  0.0000000000000E+00
331  3.3000000000000E+00  0.0000000000000E+00  0.0000000000000E+00
332  3.3100000000000E+00  0.0000000000000E+00  0.0000000000000E+00
333  3.3200000000000E+00  0.0000000000000E+00  0.0000000000000E+00
334  3.3300000000000E+00  0.0000000000000E+00  0.0000000000000E+00
335  3.3400000000000E+00  0.0000000000000E+00  0.0000000000000E+00
336  3.3500000000000E+00  0.0000000000000E+00  0.0000000000000E+00
337  3.3600000000000E+00  0.0000000000000E+00  0.0000000000000E+00
338  3.3700000000000E+00  0.0000000000000E+00  0.0000000000000E+00
339  3.3800000000000E+00  0.0000000000000E+00  0.0000000000000E+00
340  3.3900000000000E+00  0.0000000000000E+00  0.0000000000000E+00
341  3.4000000000000E+00  0.0000000000000E+00  0.0000000000000E+00
342  3.4100000000000E+00  0.0000000000000E+00  0.0000000000000E+00
343  3.4200000000000E+00  0.0000000000000E+00  0.0000000000000E+00
344  3.4300000000000E+00  0.0000000000000E+00  0.0000000000000E+00
345  3.4400000000000E+00  0.0000000000000E+00  0.0000000000000E+00
346  3.4500000000000E+00  0.0000000000000E+00  0.0000000000000E+00
347  3.4600000000000E+00  0.0000000000000E+00  0.0000000000000E+00
348  3.4700000000000E+00  0.0000000000000E+00  0.0000000000000E+00
349  3.4800000000000E+00  0.0000000000000E+00  0.0000000000000E+00
350  3.4900000000000E+00  0.0000000000000E+00  0.0000000000000E+00
351  3.5000000000000E+00  0.0000000000000E+00  0.0000000000000E+00
352  3.5100000000000E+00  0.0000000000000E+00  0.0000000000000E+00
353  3.5200000000000E+00  0.0000000000000E+00  0.0000000000000E+00
354  3.5300000000000E+00  0.0000000000000E+00  0.0000000000000E+00
355  3.5400000000000E+00  0.0000000000000E+00  0.0000000000000E+00
356  3.5500000000000E+00  0.0000000000000E+00  0.0000000000000E+00
357  3.5600000000000E+00  0.0000000000000E+00  0.0000000000000E+00
358  3.5700000000000E+00  0.0000000000000E+00  0.0000000000000E+00
359  3.5800000000000E+00  0.0000000000000E+00  0.0000000000000E+00
360  3.5900000000000E+00  0.0000000000000E+00  0.0000000000000E+00
361  3.6000000000000E+00  0.0000000000000E+00  0.0000000000000E+00
362  3.6100000000000E+00  0.0000000000000E+00  0.0000000000000E+00
363  3.6200000000000E+00  0.0000000000000E+00  0.0000000000000E+00
364  3.6300000000000E+00  0.0000000000000E+00  0.0000000000000E+00
365  3.6400000000000E+00  0.0000000000000E+00  0.0000000000000E+00
366  3.6500000000000E+00  0.0000000000000E+00  0.0000000000000E+00
367  3.6600000000000E+00  0.0000000000000E+00  0.0000000000000E+00
368  3.6700000000000E+00  0.0000000000000E+00  0.0000000000000E+00
369  3.6800000000000E+00  0.0000000000000E+00  0.0000000000000E+00
370  3.6900000000000E+00  0.0000000000000E+00  0.0000000000000E+00
371  3.7000000000000E+00  0.0000000000000E+00  0.0000000000000E+00
372  3.7100000000000E+00  0.0000000000000E+00  0.0000000000000E+00
373  3.7200000000000E+00  0.0000000000000E+00  0.0000000000000E+00
374  3.7300000000000E+00  0.0000000000000E+00  0.0000000000000E+00
375  3.7400000000000E+00  0.0000000000000E+00  0.0000000000000E+00
376  3.7500000000000E+00  0.0000000000000E+00  0.0000000000000E+00
377  3.7600000000000E+00  0.0000000000000E+00  0.0000000000000E+00
378  3.7700000000000E+00  0.0000000000000E+00  0.0000000000000E+00
379  3.7800000000000E+00  0.0000000000000E+00  0.0000000000000E+00
380  3.7900000000000E+00  0.0000000000000E+00  0.0000000000000E+00
381  3.8000000000000E+00  0.0000000000000E+00  0.0000000000000E+00
382  3.8100000000000E+00  0.0000000000000E+00  0.0000000000000E+00
383  3.8200000000000E+00  0.0000000000000E+00  0.0000000000000E+00
384  3.8300000000000E+00  0.0000000000000E+00  0.0000000000000E+00
385  3.8400000000000E+00  0.0000000000000E+00  0.0000000000000E+00
386  3.8500000000000E+00  0.0000000000000E+00  0.0000000000000E+00
387  3.8600000000000E+00  0.0000000000000E+00  0.0000000000000E+00
388  3.8700000000000E+00  0.0000000000000E+00  0.0000000000000E+00
389  3.8800000000000E+00  0.0000000000000E+00  0.0000000000000E+00
390  3.8900000000000E+00  0.0000000000000E+00  0.0000000000000E+00
391  3.9000000000000E+00  0.0000000000000E+00  0.0000000000000E+00
392  3.9100000000000E+00  0.0000000000000E+00  0.0000000000000E+00
393  3.9200000000000E+00  0.0000000000000E+00  0.0000000000000E+00
394  3.9300000000000E+00  0.0000000000000E+00  0.0000000000000E+00
395  3.9400000000000E+00  0.0000000000000E+00  0.0000000000000E+00
396  3.9500000000000E+00  0.0000000000000E+00  0.0000000000000E+00
397  3.9600000000000E+00  0.0000000000000E+00  0.0000000000000E+00
398  3.9700000000000E+00  0.0000000000000E+00  0.0000000000000E+00
399  3.9800000000000E+00  0.0000000000000E+00  0.0000000000000E+00
400  3.9900000000000E+00  0.0000000000000E+00  0.0000000000000E+00
401  4.0000000000000E+00  0.0000000000000E+00  0.0000000000000E+00
402  4.0100000000000E+00  0.0000000000000E+00  0.0000000000000E+00
403  4.0200000000000E+00  0.0000000000000E+00  0.0000000000000E+00
404  4.0300000000000E+00  0.0000000000000E+00  0.0000000000000E+00
405  4.0400000000000E+00  0.0000000000000E+00  0.0000000000000E+00
406  4.0500000000000E+00  0.0000000000000E+00  0.0000000000000E+00
407  4.0600000000000E+00  0.0000000000000E+00  0.0000000000000E+00
408  4.0700000000000E+00  0.0000000000000E+00  0.0000000000000E+00
409  4.0800000000000E+00  0.0000000000000E+00  0.0000000000000E+00
410  4.0900000000000E+00  0.0000000000000E+00  0.0000000000000E+00
411  4.1000000000000E+00  0.0000000000000E+00  0.0000000000000E+00
412  4.1100000000000E+00  0.0000000000000E+00  0.0000000000000E+00
413  4.1200000000000E+00  0.0000000000000E+00  0.0000000000000E+00
414  4.1300000000000E+00  0.0000000000000E+00  0.0000000000000E+00
415  4.1400000000000E+00  0.0000000000000E+00  0.0000000000000E+00
416  4.1500000000000E+00  0.0000000000000E+00  0.0000000000000E+00
417  4.1600000000000E+00  0.0000000000000E+00  0.0000000000000E+00
418  4.1700000000000E+00  0.0000000000000E+00  0.0000000000000E+00
419  4.1800000000000E+00  0.0000000000000E+00  0.0000000000000E+00
420  4.1900000000000E+00  0.0000000000000E+00  0.0000000000000E+00
421  4.2000000000000E+00  0.0000000000000E+00  0.0000000000000E+00
422  4.2100000000000E+00  0.0000000000000E+00  0.0000000000000E+00
423  4.2200000000000E+00  0.0000000000000E+00  0.0000000000000E+00
424  4.2300000000000E+00  0.0000000000000E+00  0.0000000000000E+00
425  4.2400000000000E+00  0.0000000000000E+00  0.0000000000000E+00
426  4.2500000000000E+00  0.0000000000000E+00  0.0000000000000E+00
427  4.2600000000000E+00  0.0000000000000E+00  0.0000000000000E+00
428  4.2700000000000E+00  0.0000000000000E+00  0.0000000000000E+00
429  4.2800000000000E+00  0.0000000000000E+00  0.0000000000000E+00
430  4.2900000000000E+00  0.0000000000000E+00  0.0000000000000E+00
431  4.3000000000000E+00  0.0000000000000E+00  0.0000000000000E+00
432  4.3100000000000E+00  0.0000000000000E+00  0.0000000000000E+00
433  4.3200000000000E+00  0.0000000000000E+00  0.0000000000000E+00
434  4.3300000000000E+00  0.0000000000000E+00  0.0000000000000E+00
435  4.3400000000000E+00  0.0000000000000E+00  0.0000000000000E+00
436  4.3500000000000E+00  0.0000000000000E+00  0.0000000000000E+00
437  4.3600000000000E+00  0.0000000000000E+00  0.0000000000000E+00
438  4.3700000000000E+00  0.0000000000000E+00  0.0000000000000E+00
439  4.3800000000000E+00  0.0000000000000E+00  0.0000000000000E+00
440  4.3900000000000E+00  0.0000000000000E+00  0.0000000000000E+00
441  4.4000000000000E+00  0.0000000000000E+00  0.0000000000000E+00
442  4.4100000000000E+00  0.0000000000000E+00  0.0000000000000E+00
443  4.4200000000000E+00  0.0000000000000E+00  0.0000000000000E+00