Cr    ONCVPSP-3.2.3.1  r_core=   1.30591   1.30591   1.71817
24.0000     14.0000      170429    zatom,zion,pspd
8      11   2     4   600     0    pspcod,pspxc,lmax,lloc,mmax,r2well
5.99000000  5.00000000  0.00000000    rchrg fchrg qchrg
2     2     2     0     0    nproj
1     1           extension_switch
0                         6.3041269343382E+00 -1.3183333588170E+00
1  0.0000000000000E+00  1.6214063425224E-09  1.4554102367725E-08
2  1.0000000000000E-02  7.3095054349855E-02 -9.4826374604230E-02
3  2.0000000000000E-02  1.4608054707843E-01 -1.8873562372262E-01
4  3.0000000000000E-02  2.1884615949540E-01 -2.8082322136662E-01
5  4.0000000000000E-02  2.9128008073907E-01 -3.7020962731324E-01
6  5.0000000000000E-02  3.6326831618336E-01 -4.5605225072108E-01
7  6.0000000000000E-02  4.3469406005584E-01 -5.3755678921540E-01
8  7.0000000000000E-02  5.0543715172629E-01 -6.1398775271180E-01
9  8.0000000000000E-02  5.7537363350370E-01 -6.8467799580219E-01
10  9.0000000000000E-02  6.4437542580863E-01 -7.4903710022833E-01
11  1.0000000000000E-01  7.1231013330143E-01 -8.0655846950019E-01
12  1.1000000000000E-01  7.7904099298835E-01 -8.5682502071558E-01
13  1.2000000000000E-01  8.4442697254080E-01 -8.9951338369122E-01
14  1.3000000000000E-01  9.0832302410087E-01 -9.3439654417800E-01
15  1.4000000000000E-01  9.7058049575997E-01 -9.6134489572736E-01
16  1.5000000000000E-01  1.0310476997452E+00 -9.8032569320430E-01
17  1.6000000000000E-01  1.0895706331859E+00 -9.9140092949531E-01
18  1.7000000000000E-01  1.1459938442192E+00 -9.9472368512447E-01
19  1.8000000000000E-01  1.2001614331857E+00 -9.9053302776022E-01
20  1.9000000000000E-01  1.2519181758179E+00 -9.7914756447675E-01
21  2.0000000000000E-01  1.3011107526939E+00 -9.6095777365955E-01
22  2.1000000000000E-01  1.3475890668556E+00 -9.3641726517684E-01
23  2.2000000000000E-01  1.3912076294302E+00 -9.0603313648095E-01
24  2.3000000000000E-01  1.4318269913816E+00 -8.7035560830586E-01
25  2.4000000000000E-01  1.4693151981793E+00 -8.2996713629288E-01
26  2.5000000000000E-01  1.5035492432536E+00 -7.8547120396740E-01
27  2.6000000000000E-01  1.5344164956030E+00 -7.3748100783073E-01
28  2.7000000000000E-01  1.5618160768628E+00 -6.8660824681647E-01
29  2.8000000000000E-01  1.5856601635331E+00 -6.3345222594760E-01
30  2.9000000000000E-01  1.6058751908866E+00 -5.7858947775275E-01
31  3.0000000000000E-01  1.6224029363377E+00 -5.2256409495714E-01
32  3.1000000000000E-01  1.6352014617189E+00 -4.6587895432214E-01
33  3.2000000000000E-01  1.6442458959640E+00 -4.0898799450462E-01
34  3.3000000000000E-01  1.6495290420969E+00 -3.5228969073710E-01
35  3.4000000000000E-01  1.6510617951412E+00 -2.9612184634464E-01
36  3.5000000000000E-01  1.6488733605390E+00 -2.4075779602064E-01
37  3.6000000000000E-01  1.6430112658636E+00 -1.8640408882510E-01
38  3.7000000000000E-01  1.6335411619578E+00 -1.3319969053463E-01
39  3.8000000000000E-01  1.6205464130858E+00 -8.1216715768032E-02
40  3.9000000000000E-01  1.6041274791759E+00 -3.0462670775859E-02
41  4.0000000000000E-01  1.5844010967068E+00  1.9115841554133E-02
42  4.1000000000000E-01  1.5614992681783E+00  6.7628031511688E-02
43  4.2000000000000E-01  1.5355680733556E+00  1.1523255154869E-01
44  4.3000000000000E-01  1.5067663185205E+00  1.6212997430947E-01
45  4.4000000000000E-01  1.4752640427545E+00  2.0855427283952E-01
46  4.5000000000000E-01  1.4412409027555E+00  2.5476347664586E-01
47  4.6000000000000E-01  1.4048844598215E+00  3.0102969470932E-01
48  4.7000000000000E-01  1.3663883943612E+00  3.4762871051359E-01
49  4.8000000000000E-01  1.3259506746005E+00  3.9482936437343E-01
50  4.9000000000000E-01  1.2837717070009E+00  4.4288294459404E-01
51  5.0000000000000E-01  1.2400524962829E+00  4.9201281112332E-01
52  5.1000000000000E-01  1.1949928428437E+00  5.4240447329214E-01
53  5.2000000000000E-01  1.1487896047687E+00  5.9419633697711E-01
54  5.3000000000000E-01  1.1016350505655E+00  6.4747132612639E-01
55  5.4000000000000E-01  1.0537153272269E+00  7.0224956923438E-01
56  5.5000000000000E-01  1.0052090662557E+00  7.5848232324528E-01
57  5.6000000000000E-01  9.5628614791470E-01  8.1604728577181E-01
58  5.7000000000000E-01  9.0710664122652E-01  8.7474542191376E-01
59  5.8000000000000E-01  8.5781993418111E-01  9.3429940452596E-01
60  5.9000000000000E-01  8.0856406529055E-01  9.9435373737100E-01
61  6.0000000000000E-01  7.5946526407483E-01  1.0544765992055E+00
62  6.1000000000000E-01  7.1063770439143E-01  1.1141634146557E+00
63  6.2000000000000E-01  6.6218347072862E-01  1.1728421246569E+00
64  6.3000000000000E-01  6.1419273380305E-01  1.2298800964706E+00
65  6.4000000000000E-01  5.6674412805645E-01  1.2845925810256E+00
66  6.5000000000000E-01  5.1990532001371E-01  1.3362525942807E+00
67  6.6000000000000E-01  4.7373375303510E-01  1.3841020702422E+00
68  6.7000000000000E-01  4.2827755078861E-01  1.4273641063850E+00
69  6.8000000000000E-01  3.8357655887982E-01  1.4652560983527E+00
70  6.9000000000000E-01  3.3966350154600E-01  1.4970035402813E+00
71  7.0000000000000E-01  2.9656522819868E-01  1.5218542503552E+00
72  7.1000000000000E-01  2.5430402291668E-01  1.5390927685316E+00
73  7.2000000000000E-01  2.1289894880444E-01  1.5480546652127E+00
74  7.3000000000000E-01  1.7236719844279E-01  1.5481404960553E+00
75  7.4000000000000E-01  1.3272542149782E-01  1.5388291392701E+00
76  7.5000000000000E-01  9.3991000921386E-02  1.5196902577103E+00
77  7.6000000000000E-01  5.6183250077090E-02  1.4903956387837E+00
78  7.7000000000000E-01  1.9324504538595E-02  1.4507291805161E+00
79  7.8000000000000E-01 -1.6558915782821E-02  1.4005953118282E+00
80  7.9000000000000E-01 -5.1435896149901E-02  1.3400256589112E+00
81  8.0000000000000E-01 -8.5269887318152E-02  1.2691837971474E+00
82  8.1000000000000E-01 -1.1801845265052E-01  1.1883679588746E+00
83  8.2000000000000E-01 -1.4963301451301E-01  1.0980116009213E+00
84  8.3000000000000E-01 -1.8005880866891E-01  9.9868177169201E-01
85  8.4000000000000E-01 -2.0923505142262E-01  8.9107525504786E-01
86  8.5000000000000E-01 -2.3709532017243E-01  7.7601250663355E-01
87  8.6000000000000E-01 -2.6356814388228E-01  6.5442943702674E-01
88  8.7000000000000E-01 -2.8857779584895E-01  5.2736713445295E-01
89  8.8000000000000E-01 -3.1204527711608E-01  3.9595965698439E-01
90  8.9000000000000E-01 -3.3388947501053E-01  2.6142005973838E-01
91  9.0000000000000E-01 -3.5402847765603E-01  1.2502485566983E-01
92  9.1000000000000E-01 -3.7238102199835E-01 -1.1902861315994E-02
93  9.2000000000000E-01 -3.8886804992976E-01 -1.4801137565848E-01
94  9.3000000000000E-01 -4.0341434457981E-01 -2.8193911410322E-01
95  9.4000000000000E-01 -4.1595021679792E-01 -4.1233391864554E-01
96  9.5000000000000E-01 -4.2641321032954E-01 -5.3787251971646E-01
97  9.6000000000000E-01 -4.3474979321699E-01 -6.5727989299205E-01
98  9.7000000000000E-01 -4.4091700255952E-01 -7.6934818070041E-01
99  9.8000000000000E-01 -4.4488400995545E-01 -8.7295486122709E-01
100  9.9000000000000E-01 -4.4663357574944E-01 -9.6707985944203E-01
101  1.0000000000000E+00 -4.4616336155892E-01 -1.0508213038644E+00
102  1.0100000000000E+00 -4.4348707246194E-01 -1.1234096556316E+00
103  1.0200000000000E+00 -4.3863540275461E-01 -1.1842199587997E+00
104  1.0300000000000E+00 -4.3165676210291E-01 -1.2327819895904E+00
105  1.0400000000000E+00 -4.2261776233455E-01 -1.2687881149420E+00
106  1.0500000000000E+00 -4.1160344900086E-01 -1.2920987076949E+00
107  1.0600000000000E+00 -3.9871726588023E-01 -1.3027450040690E+00
108  1.0700000000000E+00 -3.8408074496431E-01 -1.3009293304146E+00
109  1.0800000000000E+00 -3.6783291927944E-01 -1.2870226715753E+00
110  1.0900000000000E+00 -3.5012946034293E-01 -1.2615595950470E+00
111  1.1000000000000E+00 -3.3114154709580E-01 -1.2252305924634E+00
112  1.1100000000000E+00 -3.1105447732437E-01 -1.1788719390575E+00
113  1.1200000000000E+00 -2.9006603759701E-01 -1.1234532187035E+00
114  1.1300000000000E+00 -2.6838465191044E-01 -1.0600627011171E+00
115  1.1400000000000E+00 -2.4622733331423E-01 -9.8989079586024E-01
116  1.1500000000000E+00 -2.2381746616981E-01 -9.1421183941771E-01
117  1.1600000000000E+00 -2.0138245020106E-01 -8.3436450427692E-01
118  1.1700000000000E+00 -1.7915124032775E-01 -7.5173114534344E-01
119  1.1800000000000E+00 -1.5735181823320E-01 -6.6771641729114E-01
120  1.1900000000000E+00 -1.3620863310177E-01 -5.8372551026705E-01
121  1.2000000000000E+00 -1.1594005050580E-01 -5.0114236574548E-01
122  1.2100000000000E+00 -9.6755848297347E-02 -4.2130823317547E-01
123  1.2200000000000E+00 -7.8854797976493E-02 -3.4550092452528E-01
124  1.2300000000000E+00 -6.2422369903182E-02 -2.7491512285703E-01
125  1.2400000000000E+00 -4.7628598311189E-02 -2.1064407872317E-01
126  1.2500000000000E+00 -3.4626139400819E-02 -1.5366300331111E-01
127  1.2600000000000E+00 -2.3548555632540E-02 -1.0481446582321E-01
128  1.2700000000000E+00 -1.4514331805576E-02 -6.4820903455722E-02
129  1.2800000000000E+00 -7.5696689445629E-03 -3.4017214365997E-02
130  1.2900000000000E+00 -2.8811051465298E-03 -1.3237851754885E-02
131  1.3000000000000E+00 -5.5083173428108E-04 -2.9745046593640E-03
132  1.3100000000000E+00  1.0823176759322E-04  9.6512373304388E-05
133  1.3200000000000E+00  2.7128080800185E-05  7.7168456393011E-05
134  1.3300000000000E+00 -3.8995637086011E-05 -1.2207692967017E-04
135  1.3400000000000E+00  3.8723762867268E-06  1.0412089852459E-05
136  1.3500000000000E+00  4.3119394686189E-06  1.2223009750471E-05
137  1.3600000000000E+00  5.7891837334358E-08  1.6291944789483E-06
138  1.3700000000000E+00  0.0000000000000E+00  0.0000000000000E+00
139  1.3800000000000E+00  0.0000000000000E+00  0.0000000000000E+00
140  1.3900000000000E+00  0.0000000000000E+00  0.0000000000000E+00
141  1.4000000000000E+00  0.0000000000000E+00  0.0000000000000E+00
142  1.4100000000000E+00  0.0000000000000E+00  0.0000000000000E+00
143  1.4200000000000E+00  0.0000000000000E+00  0.0000000000000E+00
144  1.4300000000000E+00  0.0000000000000E+00  0.0000000000000E+00
145  1.4400000000000E+00  0.0000000000000E+00  0.0000000000000E+00
146  1.4500000000000E+00  0.0000000000000E+00  0.0000000000000E+00
147  1.4600000000000E+00  0.0000000000000E+00  0.0000000000000E+00
148  1.4700000000000E+00  0.0000000000000E+00  0.0000000000000E+00
149  1.4800000000000E+00  0.0000000000000E+00  0.0000000000000E+00
150  1.4900000000000E+00  0.0000000000000E+00  0.0000000000000E+00
151  1.5000000000000E+00  0.0000000000000E+00  0.0000000000000E+00
152  1.5100000000000E+00  0.0000000000000E+00  0.0000000000000E+00
153  1.5200000000000E+00  0.0000000000000E+00  0.0000000000000E+00
154  1.5300000000000E+00  0.0000000000000E+00  0.0000000000000E+00
155  1.5400000000000E+00  0.0000000000000E+00  0.0000000000000E+00
156  1.5500000000000E+00  0.0000000000000E+00  0.0000000000000E+00
157  1.5600000000000E+00  0.0000000000000E+00  0.0000000000000E+00
158  1.5700000000000E+00  0.0000000000000E+00  0.0000000000000E+00
159  1.5800000000000E+00  0.0000000000000E+00  0.0000000000000E+00
160  1.5900000000000E+00  0.0000000000000E+00  0.0000000000000E+00
161  1.6000000000000E+00  0.0000000000000E+00  0.0000000000000E+00
162  1.6100000000000E+00  0.0000000000000E+00  0.0000000000000E+00
163  1.6200000000000E+00  0.0000000000000E+00  0.0000000000000E+00
164  1.6300000000000E+00  0.0000000000000E+00  0.0000000000000E+00
165  1.6400000000000E+00  0.0000000000000E+00  0.0000000000000E+00
166  1.6500000000000E+00  0.0000000000000E+00  0.0000000000000E+00
167  1.6600000000000E+00  0.0000000000000E+00  0.0000000000000E+00
168  1.6700000000000E+00  0.0000000000000E+00  0.0000000000000E+00
169  1.6800000000000E+00  0.0000000000000E+00  0.0000000000000E+00
170  1.6900000000000E+00  0.0000000000000E+00  0.0000000000000E+00
171  1.7000000000000E+00  0.0000000000000E+00  0.0000000000000E+00
172  1.7100000000000E+00  0.0000000000000E+00  0.0000000000000E+00
173  1.7200000000000E+00  0.0000000000000E+00  0.0000000000000E+00
174  1.7300000000000E+00  0.0000000000000E+00  0.0000000000000E+00
175  1.7400000000000E+00  0.0000000000000E+00  0.0000000000000E+00
176  1.7500000000000E+00  0.0000000000000E+00  0.0000000000000E+00
177  1.7600000000000E+00  0.0000000000000E+00  0.0000000000000E+00
178  1.7700000000000E+00  0.0000000000000E+00  0.0000000000000E+00
179  1.7800000000000E+00  0.0000000000000E+00  0.0000000000000E+00
180  1.7900000000000E+00  0.0000000000000E+00  0.0000000000000E+00
181  1.8000000000000E+00  0.0000000000000E+00  0.0000000000000E+00
182  1.8100000000000E+00  0.0000000000000E+00  0.0000000000000E+00
183  1.8200000000000E+00  0.0000000000000E+00  0.0000000000000E+00
184  1.8300000000000E+00  0.0000000000000E+00  0.0000000000000E+00
185  1.8400000000000E+00  0.0000000000000E+00  0.0000000000000E+00
186  1.8500000000000E+00  0.0000000000000E+00  0.0000000000000E+00
187  1.8600000000000E+00  0.0000000000000E+00  0.0000000000000E+00
188  1.8700000000000E+00  0.0000000000000E+00  0.0000000000000E+00
189  1.8800000000000E+00  0.0000000000000E+00  0.0000000000000E+00
190  1.8900000000000E+00  0.0000000000000E+00  0.0000000000000E+00
191  1.9000000000000E+00  0.0000000000000E+00  0.0000000000000E+00
192  1.9100000000000E+00  0.0000000000000E+00  0.0000000000000E+00
193  1.9200000000000E+00  0.0000000000000E+00  0.0000000000000E+00
194  1.9300000000000E+00  0.0000000000000E+00  0.0000000000000E+00
195  1.9400000000000E+00  0.0000000000000E+00  0.0000000000000E+00
196  1.9500000000000E+00  0.0000000000000E+00  0.0000000000000E+00
197  1.9600000000000E+00  0.0000000000000E+00  0.0000000000000E+00
198  1.9700000000000E+00  0.0000000000000E+00  0.0000000000000E+00
199  1.9800000000000E+00  0.0000000000000E+00  0.0000000000000E+00
200  1.9900000000000E+00  0.0000000000000E+00  0.0000000000000E+00
201  2.0000000000000E+00  0.0000000000000E+00  0.0000000000000E+00
202  2.0100000000000E+00  0.0000000000000E+00  0.0000000000000E+00
203  2.0200000000000E+00  0.0000000000000E+00  0.0000000000000E+00
204  2.0300000000000E+00  0.0000000000000E+00  0.0000000000000E+00
205  2.0400000000000E+00  0.0000000000000E+00  0.0000000000000E+00
206  2.0500000000000E+00  0.0000000000000E+00  0.0000000000000E+00
207  2.0600000000000E+00  0.0000000000000E+00  0.0000000000000E+00
208  2.0700000000000E+00  0.0000000000000E+00  0.0000000000000E+00
209  2.0800000000000E+00  0.0000000000000E+00  0.0000000000000E+00
210  2.0900000000000E+00  0.0000000000000E+00  0.0000000000000E+00
211  2.1000000000000E+00  0.0000000000000E+00  0.0000000000000E+00
212  2.1100000000000E+00  0.0000000000000E+00  0.0000000000000E+00
213  2.1200000000000E+00  0.0000000000000E+00  0.0000000000000E+00
214  2.1300000000000E+00  0.0000000000000E+00  0.0000000000000E+00
215  2.1400000000000E+00  0.0000000000000E+00  0.0000000000000E+00
216  2.1500000000000E+00  0.0000000000000E+00  0.0000000000000E+00
217  2.1600000000000E+00  0.0000000000000E+00  0.0000000000000E+00
218  2.1700000000000E+00  0.0000000000000E+00  0.0000000000000E+00
219  2.1800000000000E+00  0.0000000000000E+00  0.0000000000000E+00
220  2.1900000000000E+00  0.0000000000000E+00  0.0000000000000E+00
221  2.2000000000000E+00  0.0000000000000E+00  0.0000000000000E+00
222  2.2100000000000E+00  0.0000000000000E+00  0.0000000000000E+00
223  2.2200000000000E+00  0.0000000000000E+00  0.0000000000000E+00
224  2.2300000000000E+00  0.0000000000000E+00  0.0000000000000E+00
225  2.2400000000000E+00  0.0000000000000E+00  0.0000000000000E+00
226  2.2500000000000E+00  0.0000000000000E+00  0.0000000000000E+00
227  2.2600000000000E+00  0.0000000000000E+00  0.0000000000000E+00
228  2.2700000000000E+00  0.0000000000000E+00  0.0000000000000E+00
229  2.2800000000000E+00  0.0000000000000E+00  0.0000000000000E+00
230  2.2900000000000E+00  0.0000000000000E+00  0.0000000000000E+00
231  2.3000000000000E+00  0.0000000000000E+00  0.0000000000000E+00
232  2.3100000000000E+00  0.0000000000000E+00  0.0000000000000E+00
233  2.3200000000000E+00  0.0000000000000E+00  0.0000000000000E+00
234  2.3300000000000E+00  0.0000000000000E+00  0.0000000000000E+00
235  2.3400000000000E+00  0.0000000000000E+00  0.0000000000000E+00
236  2.3500000000000E+00  0.0000000000000E+00  0.0000000000000E+00
237  2.3600000000000E+00  0.0000000000000E+00  0.0000000000000E+00
238  2.3700000000000E+00  0.0000000000000E+00  0.0000000000000E+00
239  2.3800000000000E+00  0.0000000000000E+00  0.0000000000000E+00
240  2.3900000000000E+00  0.0000000000000E+00  0.0000000000000E+00
241  2.4000000000000E+00  0.0000000000000E+00  0.0000000000000E+00
242  2.4100000000000E+00  0.0000000000000E+00  0.0000000000000E+00
243  2.4200000000000E+00  0.0000000000000E+00  0.0000000000000E+00
244  2.4300000000000E+00  0.0000000000000E+00  0.0000000000000E+00
245  2.4400000000000E+00  0.0000000000000E+00  0.0000000000000E+00
246  2.4500000000000E+00  0.0000000000000E+00  0.0000000000000E+00
247  2.4600000000000E+00  0.0000000000000E+00  0.0000000000000E+00
248  2.4700000000000E+00  0.0000000000000E+00  0.0000000000000E+00
249  2.4800000000000E+00  0.0000000000000E+00  0.0000000000000E+00
250  2.4900000000000E+00  0.0000000000000E+00  0.0000000000000E+00
251  2.5000000000000E+00  0.0000000000000E+00  0.0000000000000E+00
252  2.5100000000000E+00  0.0000000000000E+00  0.0000000000000E+00
253  2.5200000000000E+00  0.0000000000000E+00  0.0000000000000E+00
254  2.5300000000000E+00  0.0000000000000E+00  0.0000000000000E+00
255  2.5400000000000E+00  0.0000000000000E+00  0.0000000000000E+00
256  2.5500000000000E+00  0.0000000000000E+00  0.0000000000000E+00
257  2.5600000000000E+00  0.0000000000000E+00  0.0000000000000E+00
258  2.5700000000000E+00  0.0000000000000E+00  0.0000000000000E+00
259  2.5800000000000E+00  0.0000000000000E+00  0.0000000000000E+00
260  2.5900000000000E+00  0.0000000000000E+00  0.0000000000000E+00
261  2.6000000000000E+00  0.0000000000000E+00  0.0000000000000E+00
262  2.6100000000000E+00  0.0000000000000E+00  0.0000000000000E+00
263  2.6200000000000E+00  0.0000000000000E+00  0.0000000000000E+00
264  2.6300000000000E+00  0.0000000000000E+00  0.0000000000000E+00
265  2.6400000000000E+00  0.0000000000000E+00  0.0000000000000E+00
266  2.6500000000000E+00  0.0000000000000E+00  0.0000000000000E+00
267  2.6600000000000E+00  0.0000000000000E+00  0.0000000000000E+00
268  2.6700000000000E+00  0.0000000000000E+00  0.0000000000000E+00
269  2.6800000000000E+00  0.0000000000000E+00  0.0000000000000E+00
270  2.6900000000000E+00  0.0000000000000E+00  0.0000000000000E+00
271  2.7000000000000E+00  0.0000000000000E+00  0.0000000000000E+00
272  2.7100000000000E+00  0.0000000000000E+00  0.0000000000000E+00
273  2.7200000000000E+00  0.0000000000000E+00  0.0000000000000E+00
274  2.7300000000000E+00  0.0000000000000E+00  0.0000000000000E+00
275  2.7400000000000E+00  0.0000000000000E+00  0.0000000000000E+00
276  2.7500000000000E+00  0.0000000000000E+00  0.0000000000000E+00
277  2.7600000000000E+00  0.0000000000000E+00  0.0000000000000E+00
278  2.7700000000000E+00  0.0000000000000E+00  0.0000000000000E+00
279  2.7800000000000E+00  0.0000000000000E+00  0.0000000000000E+00
280  2.7900000000000E+00  0.0000000000000E+00  0.0000000000000E+00
281  2.8000000000000E+00  0.0000000000000E+00  0.0000000000000E+00
282  2.8100000000000E+00  0.0000000000000E+00  0.0000000000000E+00
283  2.8200000000000E+00  0.0000000000000E+00  0.0000000000000E+00
284  2.8300000000000E+00  0.0000000000000E+00  0.0000000000000E+00
285  2.8400000000000E+00  0.0000000000000E+00  0.0000000000000E+00
286  2.8500000000000E+00  0.0000000000000E+00  0.0000000000000E+00
287  2.8600000000000E+00  0.0000000000000E+00  0.0000000000000E+00
288  2.8700000000000E+00  0.0000000000000E+00  0.0000000000000E+00
289  2.8800000000000E+00  0.0000000000000E+00  0.0000000000000E+00
290  2.8900000000000E+00  0.0000000000000E+00  0.0000000000000E+00
291  2.9000000000000E+00  0.0000000000000E+00  0.0000000000000E+00
292  2.9100000000000E+00  0.0000000000000E+00  0.0000000000000E+00
293  2.9200000000000E+00  0.0000000000000E+00  0.0000000000000E+00
294  2.9300000000000E+00  0.0000000000000E+00  0.0000000000000E+00
295  2.9400000000000E+00  0.0000000000000E+00  0.0000000000000E+00
296  2.9500000000000E+00  0.0000000000000E+00  0.0000000000000E+00
297  2.9600000000000E+00  0.0000000000000E+00  0.0000000000000E+00
298  2.9700000000000E+00  0.0000000000000E+00  0.0000000000000E+00
299  2.9800000000000E+00  0.0000000000000E+00  0.0000000000000E+00
300  2.9900000000000E+00  0.0000000000000E+00  0.0000000000000E+00
301  3.0000000000000E+00  0.0000000000000E+00  0.0000000000000E+00
302  3.0100000000000E+00  0.0000000000000E+00  0.0000000000000E+00
303  3.0200000000000E+00  0.0000000000000E+00  0.0000000000000E+00
304  3.0300000000000E+00  0.0000000000000E+00  0.0000000000000E+00
305  3.0400000000000E+00  0.0000000000000E+00  0.0000000000000E+00
306  3.0500000000000E+00  0.0000000000000E+00  0.0000000000000E+00
307  3.0600000000000E+00  0.0000000000000E+00  0.0000000000000E+00
308  3.0700000000000E+00  0.0000000000000E+00  0.0000000000000E+00
309  3.0800000000000E+00  0.0000000000000E+00  0.0000000000000E+00
310  3.0900000000000E+00  0.0000000000000E+00  0.0000000000000E+00
311  3.1000000000000E+00  0.0000000000000E+00  0.0000000000000E+00
312  3.1100000000000E+00  0.0000000000000E+00  0.0000000000000E+00
313  3.1200000000000E+00  0.0000000000000E+00  0.0000000000000E+00
314  3.1300000000000E+00  0.0000000000000E+00  0.0000000000000E+00
315  3.1400000000000E+00  0.0000000000000E+00  0.0000000000000E+00
316  3.1500000000000E+00  0.0000000000000E+00  0.0000000000000E+00
317  3.1600000000000E+00  0.0000000000000E+00  0.0000000000000E+00
318  3.1700000000000E+00  0.0000000000000E+00  0.0000000000000E+00
319  3.1800000000000E+00  0.0000000000000E+00  0.0000000000000E+00
320  3.1900000000000E+00  0.0000000000000E+00  0.0000000000000E+00
321  3.2000000000000E+00  0.0000000000000E+00  0.0000000000000E+00
322  3.2100000000000E+00  0.0000000000000E+00  0.0000000000000E+00
323  3.2200000000000E+00  0.0000000000000E+00  0.0000000000000E+00
324  3.2300000000000E+00  0.0000000000000E+00  0.0000000000000E+00
325  3.2400000000000E+00  0.0000000000000E+00  0.0000000000000E+00
326  3.2500000000000E+00  0.0000000000000E+00  0.0000000000000E+00
327  3.2600000000000E+00  0.0000000000000E+00  0.0000000000000E+00
328  3.2700000000000E+00  0.0000000000000E+00  0.0000000000000E+00
329  3.2800000000000E+00  0.0000000000000E+00  0.0000000000000E+00
330  3.2900000000000E+00  0.0000000000000E+00  0.0000000000000E+00
331  3.3000000000000E+00  0.0000000000000E+00  0.0000000000000E+00
332  3.3100000000000E+00  0.0000000000000E+00  0.0000000000000E+00
333  3.3200000000000E+00  0.0000000000000E+00  0.0000000000000E+00
334  3.3300000000000E+00  0.0000000000000E+00  0.0000000000000E+00
335  3.3400000000000E+00  0.0000000000000E+00  0.0000000000000E+00
336  3.3500000000000E+00  0.0000000000000E+00  0.0000000000000E+00
337  3.3600000000000E+00  0.0000000000000E+00  0.0000000000000E+00
338  3.3700000000000E+00  0.0000000000000E+00  0.0000000000000E+00
339  3.3800000000000E+00  0.0000000000000E+00  0.0000000000000E+00
340  3.3900000000000E+00  0.0000000000000E+00  0.0000000000000E+00
341  3.4000000000000E+00  0.0000000000000E+00  0.0000000000000E+00
342  3.4100000000000E+00  0.0000000000000E+00  0.0000000000000E+00
343  3.4200000000000E+00  0.0000000000000E+00  0.0000000000000E+00
344  3.4300000000000E+00  0.0000000000000E+00  0.0000000000000E+00
345  3.4400000000000E+00  0.0000000000000E+00  0.0000000000000E+00
346  3.4500000000000E+00  0.0000000000000E+00  0.0000000000000E+00
347  3.4600000000000E+00  0.0000000000000E+00  0.0000000000000E+00
348  3.4700000000000E+00  0.0000000000000E+00  0.0000000000000E+00
349  3.4800000000000E+00  0.0000000000000E+00  0.0000000000000E+00
350  3.4900000000000E+00  0.0000000000000E+00  0.0000000000000E+00
351  3.5000000000000E+00  0.0000000000000E+00  0.0000000000000E+00
352  3.5100000000000E+00  0.0000000000000E+00  0.0000000000000E+00
353  3.5200000000000E+00  0.0000000000000E+00  0.0000000000000E+00
354  3.5300000000000E+00  0.0000000000000E+00  0.0000000000000E+00
355  3.5400000000000E+00  0.0000000000000E+00  0.0000000000000E+00
356  3.5500000000000E+00  0.0000000000000E+00  0.0000000000000E+00
357  3.5600000000000E+00  0.0000000000000E+00  0.0000000000000E+00
358  3.5700000000000E+00  0.0000000000000E+00  0.0000000000000E+00
359  3.5800000000000E+00  0.0000000000000E+00  0.0000000000000E+00
360  3.5900000000000E+00  0.0000000000000E+00  0.0000000000000E+00
361  3.6000000000000E+00  0.0000000000000E+00  0.0000000000000E+00
362  3.6100000000000E+00  0.0000000000000E+00  0.0000000000000E+00
363  3.6200000000000E+00  0.0000000000000E+00  0.0000000000000E+00
364  3.6300000000000E+00  0.0000000000000E+00  0.0000000000000E+00
365  3.6400000000000E+00  0.0000000000000E+00  0.0000000000000E+00
366  3.6500000000000E+00  0.0000000000000E+00  0.0000000000000E+00
367  3.6600000000000E+00  0.0000000000000E+00  0.0000000000000E+00
368  3.6700000000000E+00  0.0000000000000E+00  0.0000000000000E+00
369  3.6800000000000E+00  0.0000000000000E+00  0.0000000000000E+00
370  3.6900000000000E+00  0.0000000000000E+00  0.0000000000000E+00
371  3.7000000000000E+00  0.0000000000000E+00  0.0000000000000E+00
372  3.7100000000000E+00  0.0000000000000E+00  0.0000000000000E+00
373  3.7200000000000E+00  0.0000000000000E+00  0.0000000000000E+00
374  3.7300000000000E+00  0.0000000000000E+00  0.0000000000000E+00
375  3.7400000000000E+00  0.0000000000000E+00  0.0000000000000E+00
376  3.7500000000000E+00  0.0000000000000E+00  0.0000000000000E+00
377  3.7600000000000E+00  0.0000000000000E+00  0.0000000000000E+00
378  3.7700000000000E+00  0.0000000000000E+00  0.0000000000000E+00
379  3.7800000000000E+00  0.0000000000000E+00  0.0000000000000E+00
380  3.7900000000000E+00  0.0000000000000E+00  0.0000000000000E+00
381  3.8000000000000E+00  0.0000000000000E+00  0.0000000000000E+00
382  3.8100000000000E+00  0.0000000000000E+00  0.0000000000000E+00
383  3.8200000000000E+00  0.0000000000000E+00  0.0000000000000E+00
384  3.8300000000000E+00  0.0000000000000E+00  0.0000000000000E+00
385  3.8400000000000E+00  0.0000000000000E+00  0.0000000000000E+00
386  3.8500000000000E+00  0.0000000000000E+00  0.0000000000000E+00
387  3.8600000000000E+00  0.0000000000000E+00  0.0000000000000E+00
388  3.8700000000000E+00  0.0000000000000E+00  0.0000000000000E+00
389  3.8800000000000E+00  0.0000000000000E+00  0.0000000000000E+00
390  3.8900000000000E+00  0.0000000000000E+00  0.0000000000000E+00
391  3.9000000000000E+00  0.0000000000000E+00  0.0000000000000E+00
392  3.9100000000000E+00  0.0000000000000E+00  0.0000000000000E+00
393  3.9200000000000E+00  0.0000000000000E+00  0.0000000000000E+00
394  3.9300000000000E+00  0.0000000000000E+00  0.0000000000000E+00
395  3.9400000000000E+00  0.0000000000000E+00  0.0000000000000E+00
396  3.9500000000000E+00  0.0000000000000E+00  0.0000000000000E+00
397  3.9600000000000E+00  0.0000000000000E+00  0.0000000000000E+00
398  3.9700000000000E+00  0.0000000000000E+00  0.0000000000000E+00
399  3.9800000000000E+00  0.0000000000000E+00  0.0000000000000E+00
400  3.9900000000000E+00  0.0000000000000E+00  0.0000000000000E+00
401  4.0000000000000E+00  0.0000000000000E+00  0.0000000000000E+00
402  4.0100000000000E+00  0.0000000000000E+00  0.0000000000000E+00
403  4.0200000000000E+00  0.0000000000000E+00  0.0000000000000E+00
404  4.0300000000000E+00  0.0000000000000E+00  0.0000000000000E+00
405  4.0400000000000E+00  0.0000000000000E+00  0.0000000000000E+00
406  4.0500000000000E+00  0.0000000000000E+00  0.0000000000000E+00
407  4.0600000000000E+00  0.0000000000000E+00  0.0000000000000E+00
408  4.0700000000000E+00  0.0000000000000E+00  0.0000000000000E+00
409  4.0800000000000E+00  0.0000000000000E+00  0.0000000000000E+00
410  4.0900000000000E+00  0.0000000000000E+00  0.0000000000000E+00
411  4.1000000000000E+00  0.0000000000000E+00  0.0000000000000E+00
412  4.1100000000000E+00  0.0000000000000E+00  0.0000000000000E+00
413  4.1200000000000E+00  0.0000000000000E+00  0.0000000000000E+00
414  4.1300000000000E+00  0.0000000000000E+00  0.0000000000000E+00
415  4.1400000000000E+00  0.0000000000000E+00  0.0000000000000E+00
416  4.1500000000000E+00  0.0000000000000E+00  0.0000000000000E+00
417  4.1600000000000E+00  0.0000000000000E+00  0.0000000000000E+00
418  4.1700000000000E+00  0.0000000000000E+00  0.0000000000000E+00
419  4.1800000000000E+00  0.0000000000000E+00  0.0000000000000E+00
420  4.1900000000000E+00  0.0000000000000E+00  0.0000000000000E+00
421  4.2000000000000E+00  0.0000000000000E+00  0.0000000000000E+00
422  4.2100000000000E+00  0.0000000000000E+00  0.0000000000000E+00
423  4.2200000000000E+00  0.0000000000000E+00  0.0000000000000E+00
424  4.2300000000000E+00  0.0000000000000E+00  0.0000000000000E+00
425  4.2400000000000E+00  0.0000000000000E+00  0.0000000000000E+00
426  4.2500000000000E+00  0.0000000000000E+00  0.0000000000000E+00
427  4.2600000000000E+00  0.0000000000000E+00  0.0000000000000E+00
428  4.2700000000000E+00  0.0000000000000E+00  0.0000000000000E+00
429  4.2800000000000E+00  0.0000000000000E+00  0.0000000000000E+00
430  4.2900000000000E+00  0.0000000000000E+00  0.0000000000000E+00
431  4.3000000000000E+00  0.0000000000000E+00  0.0000000000000E+00
432  4.3100000000000E+00  0.0000000000000E+00  0.0000000000000E+00
433  4.3200000000000E+00  0.0000000000000E+00  0.0000000000000E+00
434  4.3300000000000E+00  0.0000000000000E+00  0.0000000000000E+00
435  4.3400000000000E+00  0.0000000000000E+00  0.0000000000000E+00
436  4.3500000000000E+00  0.0000000000000E+00  0.0000000000000E+00
437  4.3600000000000E+00  0.0000000000000E+00  0.0000000000000E+00
438  4.3700000000000E+00  0.0000000000000E+00  0.0000000000000E+00
439  4.3800000000000E+00  0.0000000000000E+00  0.0000000000000E+00
440  4.3900000000000E+00  0.0000000000000E+00  0.0000000000000E+00
441  4.4000000000000E+00  0.0000000000000E+00  0.0000000000000E+00
442  4.4100000000000E+00  0.0000000000000E+00  0.0000000000000E+00
443  4.4200000000000E+00  0.0000000000000E+00  0.0000000000000E+00