Mn    ONCVPSP-3.2.3.1  r_core=   1.41250   1.20960   1.61055
25.0000     15.0000      170429    zatom,zion,pspd
8      11   2     4   600     0    pspcod,pspxc,lmax,lloc,mmax,r2well
5.99000000  4.00000000  0.00000000    rchrg fchrg qchrg
2     2     2     0     0    nproj
1     1           extension_switch
0                         9.2356869767753E+00  1.5605554204421E+00
1  0.0000000000000E+00  3.5697522715594E-10 -6.7391021756069E-10
2  1.0000000000000E-02  7.9821092972278E-02  1.1745382529150E-03
3  2.0000000000000E-02  1.5948415396971E-01  2.3363706878369E-03
4  3.0000000000000E-02  2.3883097102185E-01  3.4739072111101E-03
5  4.0000000000000E-02  3.1770297973497E-01  4.5777731139056E-03
6  5.0000000000000E-02  3.9594110590888E-01  5.6418767772747E-03
7  6.0000000000000E-02  4.7338563049293E-01  6.6644298732906E-03
8  7.0000000000000E-02  5.4987608390528E-01  7.6489050244398E-03
9  8.0000000000000E-02  6.2525117638256E-01  8.6049165573325E-03
10  9.0000000000000E-02  6.9934877058710E-01  9.5490108175154E-03
11  1.0000000000000E-01  7.7200590218050E-01  1.0505353492669E-02
12  1.1000000000000E-01  8.4305885347943E-01  1.1506302512255E-02
13  1.2000000000000E-01  9.1234328464894E-01  1.2592856343240E-02
14  1.3000000000000E-01  9.7969442616579E-01  1.3814968871706E-02
15  1.4000000000000E-01  1.0449473355064E+00  1.5231723536819E-02
16  1.5000000000000E-01  1.1079372201887E+00  1.6911360952825E-02
17  1.6000000000000E-01  1.1684998284325E+00  1.8931155901916E-02
18  1.7000000000000E-01  1.2264719078078E+00  2.1377141290118E-02
19  1.8000000000000E-01  1.2816917313207E+00  2.4343678413996E-02
20  1.9000000000000E-01  1.3339996894604E+00  2.7932874670609E-02
21  2.0000000000000E-01  1.3832389457914E+00  3.2253851639332E-02
22  2.1000000000000E-01  1.4292561527528E+00  3.7421868254898E-02
23  2.2000000000000E-01  1.4719022234115E+00  4.3557305557045E-02
24  2.3000000000000E-01  1.5110331540338E+00  5.0784521226978E-02
25  2.4000000000000E-01  1.5465108914865E+00  5.9230583785558E-02
26  2.5000000000000E-01  1.5782042386769E+00  6.9023897915522E-02
27  2.6000000000000E-01  1.6059897904886E+00  8.0292733863076E-02
28  2.7000000000000E-01  1.6297528919805E+00  9.3163675256360E-02
29  2.8000000000000E-01  1.6493886100051E+00  1.0776000093326E-01
30  2.9000000000000E-01  1.6648027088586E+00  1.2420001748524E-01
31  3.0000000000000E-01  1.6759126201291E+00  1.4259536018208E-01
32  3.1000000000000E-01  1.6826483965504E+00  1.6304928073314E-01
33  3.2000000000000E-01  1.6849536394101E+00  1.8565494095299E-01
34  3.3000000000000E-01  1.6827863889044E+00  2.1049373182242E-01
35  3.4000000000000E-01  1.6761199667879E+00  2.3763363766335E-01
36  3.5000000000000E-01  1.6649437607265E+00  2.6712766517072E-01
37  3.6000000000000E-01  1.6492639399404E+00  2.9901235686278E-01
38  3.7000000000000E-01  1.6291040920124E+00  3.3330640811991E-01
39  3.8000000000000E-01  1.6045057711399E+00  3.7000940638230E-01
40  3.9000000000000E-01  1.5755289486258E+00  4.0910071026905E-01
41  4.0000000000000E-01  1.5422523570245E+00  4.5053848537003E-01
42  4.1000000000000E-01  1.5047737200938E+00  4.9425891225369E-01
43  4.2000000000000E-01  1.4632098615301E+00  5.4017558083596E-01
44  4.3000000000000E-01  1.4176966863948E+00  5.8817908367919E-01
45  4.4000000000000E-01  1.3683890301497E+00  6.3813681904709E-01
46  4.5000000000000E-01  1.3154603713150E+00  6.8989301264622E-01
47  4.6000000000000E-01  1.2591024049276E+00  7.4326896495421E-01
48  4.7000000000000E-01  1.1995244751994E+00  7.9806352888559E-01
49  4.8000000000000E-01  1.1369528670528E+00  8.5405382029922E-01
50  4.9000000000000E-01  1.0716299575173E+00  9.1099616152730E-01
51  5.0000000000000E-01  1.0038132293136E+00  9.6862725572677E-01
52  5.1000000000000E-01  9.3377415029424E-01  1.0266655874437E+00
53  5.2000000000000E-01  8.6179692376391E-01  1.0848130423635E+00
54  5.3000000000000E-01  7.8817711603168E-01  1.1427567368220E+00
55  5.4000000000000E-01  7.1322016885420E-01  1.2001710452926E+00
56  5.5000000000000E-01  6.3723980569057E-01  1.2567198117817E+00
57  5.6000000000000E-01  5.6055634189582E-01  1.3120587288673E+00
58  5.7000000000000E-01  4.8349491011688E-01  1.3658378660399E+00
59  5.8000000000000E-01  4.0638361320726E-01  1.4177043270770E+00
60  5.9000000000000E-01  3.2955161793731E-01  1.4673050144095E+00
61  6.0000000000000E-01  2.5332720362554E-01  1.5142894768652E+00
62  6.1000000000000E-01  1.7803578055289E-01  1.5583128157988E+00
63  6.2000000000000E-01  1.0399789362501E-01  1.5990386234790E+00
64  6.3000000000000E-01  3.1527227217773E-02  1.6361419266963E+00
65  6.4000000000000E-01 -3.9071372534148E-02  1.6693121079174E+00
66  6.5000000000000E-01 -1.0750384157227E-01  1.6982557759334E+00
67  6.6000000000000E-01 -1.7348879141943E-01  1.7226995578561E+00
68  6.7000000000000E-01 -2.3675933604244E-01  1.7423927845049E+00
69  6.8000000000000E-01 -2.9706483605695E-01  1.7571100417027E+00
70  6.9000000000000E-01 -3.5417254472023E-01  1.7666535607681E+00
71  7.0000000000000E-01 -4.0786914077397E-01  1.7708554225398E+00
72  7.1000000000000E-01 -4.5796213397284E-01  1.7695795506057E+00
73  7.2000000000000E-01 -5.0428113005317E-01  1.7627234710061E+00
74  7.3000000000000E-01 -5.4667894296331E-01  1.7502198175469E+00
75  7.4000000000000E-01 -5.8503254337531E-01  1.7320375639639E+00
76  7.5000000000000E-01 -6.1924383381912E-01  1.7081829665099E+00
77  7.6000000000000E-01 -6.4924024221659E-01  1.6787002030715E+00
78  7.7000000000000E-01 -6.7497512712764E-01  1.6436716976439E+00
79  7.8000000000000E-01 -6.9642798964066E-01  1.6032181218611E+00
80  7.9000000000000E-01 -7.1360448852745E-01  1.5574980682786E+00
81  8.0000000000000E-01 -7.2653625703103E-01  1.5067073932095E+00
82  8.1000000000000E-01 -7.3528052143020E-01  1.4510782300745E+00
83  8.2000000000000E-01 -7.3991952332454E-01  1.3908776774236E+00
84  8.3000000000000E-01 -7.4055974938164E-01  1.3264061689856E+00
85  8.4000000000000E-01 -7.3733097406740E-01  1.2579955362657E+00
86  8.5000000000000E-01 -7.3038512262249E-01  1.1860067773022E+00
87  8.6000000000000E-01 -7.1989496323409E-01  1.1108275481882E+00
88  8.7000000000000E-01 -7.0605263896377E-01  1.0328693968168E+00
89  8.8000000000000E-01 -6.8906805151275E-01  9.5256476099716E-01
90  8.9000000000000E-01 -6.6916711031667E-01  8.7036375557509E-01
91  9.0000000000000E-01 -6.4658986174902E-01  7.8673077544894E-01
92  9.1000000000000E-01 -6.2158851435948E-01  7.0214094337705E-01
93  9.2000000000000E-01 -5.9442537706780E-01  6.1707643319273E-01
94  9.3000000000000E-01 -5.6537072806344E-01  5.3202270046327E-01
95  9.4000000000000E-01 -5.3470063281678E-01  4.4746465372952E-01
96  9.5000000000000E-01 -5.0269473007617E-01  3.6388280022056E-01
97  9.6000000000000E-01 -4.6963400500975E-01  2.8174940035789E-01
98  9.7000000000000E-01 -4.3579856873682E-01  2.0152466541871E-01
99  9.8000000000000E-01 -4.0146546338258E-01  1.2365303242430E-01
100  9.9000000000000E-01 -3.6690651148404E-01  4.8559549657339E-02
101  1.0000000000000E+00 -3.3238622807279E-01 -2.3353594808614E-02
102  1.0100000000000E+00 -2.9815981307202E-01 -9.1710370543709E-02
103  1.0200000000000E+00 -2.6447124074008E-01 -1.5616399889547E-01
104  1.0300000000000E+00 -2.3155146189263E-01 -2.1639981648070E-01
105  1.0400000000000E+00 -1.9961673336770E-01 -2.7213788311548E-01
106  1.0500000000000E+00 -1.6886708783509E-01 -3.2313531184913E-01
107  1.0600000000000E+00 -1.3948495555378E-01 -3.6918830159818E-01
108  1.0700000000000E+00 -1.1163394801226E-01 -4.1013385601878E-01
109  1.0800000000000E+00 -8.5457811647594E-02 -4.4585117551758E-01
110  1.0900000000000E+00 -6.1079558105771E-02 -4.7626271254764E-01
111  1.1000000000000E+00 -3.8600775411908E-02 -5.0133488424263E-01
112  1.1100000000000E+00 -1.8101122653102E-02 -5.2107843973041E-01
113  1.1200000000000E+00  3.6199142084373E-04 -5.3554848354684E-01
114  1.1300000000000E+00  1.6753547063920E-02 -5.4484415951967E-01
115  1.1400000000000E+00  3.1060873074766E-02 -5.4910800396883E-01
116  1.1500000000000E+00  4.3293432451415E-02 -5.4852498007607E-01
117  1.1600000000000E+00  5.3482441525449E-02 -5.4332120917939E-01
118  1.1700000000000E+00  6.1680333003869E-02 -5.3376242133302E-01
119  1.1800000000000E+00  6.7960062363213E-02 -5.2015212006713E-01
120  1.1900000000000E+00  7.2414320090455E-02 -5.0282960433604E-01
121  1.2000000000000E+00  7.5154410050464E-02 -4.8216728022140E-01
122  1.2100000000000E+00  7.6309779008304E-02 -4.5856957677622E-01
123  1.2200000000000E+00  7.6025577308627E-02 -4.3246726052498E-01
124  1.2300000000000E+00  7.4458109254165E-02 -4.0430683761591E-01
125  1.2400000000000E+00  7.1769922955350E-02 -3.7453955516767E-01
126  1.2500000000000E+00  6.8126768215812E-02 -3.4361499588530E-01
127  1.2600000000000E+00  6.3696160303547E-02 -3.1197860877581E-01
128  1.2700000000000E+00  5.8645208235797E-02 -2.8006744601799E-01
129  1.2800000000000E+00  5.3138701960522E-02 -2.4830653420673E-01
130  1.2900000000000E+00  4.7337193228325E-02 -2.1710521619223E-01
131  1.3000000000000E+00  4.1395156407755E-02 -1.8685366360331E-01
132  1.3100000000000E+00  3.5459228648232E-02 -1.5791954878646E-01
133  1.3200000000000E+00  2.9666548331853E-02 -1.3064491288602E-01
134  1.3300000000000E+00  2.4143209871992E-02 -1.0534326412118E-01
135  1.3400000000000E+00  1.9002847789925E-02 -8.2296929782096E-02
136  1.3500000000000E+00  1.4345363070799E-02 -6.1754686102548E-02
137  1.3600000000000E+00  1.0255805883756E-02 -4.3929692273763E-02
138  1.3700000000000E+00  6.8057270627017E-03 -2.9007337366507E-02
139  1.3800000000000E+00  4.0388147179654E-03 -1.7087659274119E-02
140  1.3900000000000E+00  1.9882323080896E-03 -8.2596581024220E-03
141  1.4000000000000E+00  7.4392975380448E-04 -2.8605471977983E-03
142  1.4100000000000E+00  1.9945356979974E-04 -4.9702385760364E-04
143  1.4200000000000E+00  2.7097356334795E-05  8.3077627634445E-05
144  1.4300000000000E+00 -8.3119328987055E-08 -5.3140351040987E-06
145  1.4400000000000E+00  1.8839074879493E-06 -3.9763250013963E-05
146  1.4500000000000E+00  2.8874793776350E-07  4.2809600734949E-06
147  1.4600000000000E+00  1.2995369360862E-07  4.4594072445111E-06
148  1.4700000000000E+00 -3.5438963635132E-07  6.2576775524498E-07
149  1.4800000000000E+00 -9.8159271931458E-08  1.7332591292861E-07
150  1.4900000000000E+00  0.0000000000000E+00  0.0000000000000E+00
151  1.5000000000000E+00  0.0000000000000E+00  0.0000000000000E+00
152  1.5100000000000E+00  0.0000000000000E+00  0.0000000000000E+00
153  1.5200000000000E+00  0.0000000000000E+00  0.0000000000000E+00
154  1.5300000000000E+00  0.0000000000000E+00  0.0000000000000E+00
155  1.5400000000000E+00  0.0000000000000E+00  0.0000000000000E+00
156  1.5500000000000E+00  0.0000000000000E+00  0.0000000000000E+00
157  1.5600000000000E+00  0.0000000000000E+00  0.0000000000000E+00
158  1.5700000000000E+00  0.0000000000000E+00  0.0000000000000E+00
159  1.5800000000000E+00  0.0000000000000E+00  0.0000000000000E+00
160  1.5900000000000E+00  0.0000000000000E+00  0.0000000000000E+00
161  1.6000000000000E+00  0.0000000000000E+00  0.0000000000000E+00
162  1.6100000000000E+00  0.0000000000000E+00  0.0000000000000E+00
163  1.6200000000000E+00  0.0000000000000E+00  0.0000000000000E+00
164  1.6300000000000E+00  0.0000000000000E+00  0.0000000000000E+00
165  1.6400000000000E+00  0.0000000000000E+00  0.0000000000000E+00
166  1.6500000000000E+00  0.0000000000000E+00  0.0000000000000E+00
167  1.6600000000000E+00  0.0000000000000E+00  0.0000000000000E+00
168  1.6700000000000E+00  0.0000000000000E+00  0.0000000000000E+00
169  1.6800000000000E+00  0.0000000000000E+00  0.0000000000000E+00
170  1.6900000000000E+00  0.0000000000000E+00  0.0000000000000E+00
171  1.7000000000000E+00  0.0000000000000E+00  0.0000000000000E+00
172  1.7100000000000E+00  0.0000000000000E+00  0.0000000000000E+00
173  1.7200000000000E+00  0.0000000000000E+00  0.0000000000000E+00
174  1.7300000000000E+00  0.0000000000000E+00  0.0000000000000E+00
175  1.7400000000000E+00  0.0000000000000E+00  0.0000000000000E+00
176  1.7500000000000E+00  0.0000000000000E+00  0.0000000000000E+00
177  1.7600000000000E+00  0.0000000000000E+00  0.0000000000000E+00
178  1.7700000000000E+00  0.0000000000000E+00  0.0000000000000E+00
179  1.7800000000000E+00  0.0000000000000E+00  0.0000000000000E+00
180  1.7900000000000E+00  0.0000000000000E+00  0.0000000000000E+00
181  1.8000000000000E+00  0.0000000000000E+00  0.0000000000000E+00
182  1.8100000000000E+00  0.0000000000000E+00  0.0000000000000E+00
183  1.8200000000000E+00  0.0000000000000E+00  0.0000000000000E+00
184  1.8300000000000E+00  0.0000000000000E+00  0.0000000000000E+00
185  1.8400000000000E+00  0.0000000000000E+00  0.0000000000000E+00
186  1.8500000000000E+00  0.0000000000000E+00  0.0000000000000E+00
187  1.8600000000000E+00  0.0000000000000E+00  0.0000000000000E+00
188  1.8700000000000E+00  0.0000000000000E+00  0.0000000000000E+00
189  1.8800000000000E+00  0.0000000000000E+00  0.0000000000000E+00
190  1.8900000000000E+00  0.0000000000000E+00  0.0000000000000E+00
191  1.9000000000000E+00  0.0000000000000E+00  0.0000000000000E+00
192  1.9100000000000E+00  0.0000000000000E+00  0.0000000000000E+00
193  1.9200000000000E+00  0.0000000000000E+00  0.0000000000000E+00
194  1.9300000000000E+00  0.0000000000000E+00  0.0000000000000E+00
195  1.9400000000000E+00  0.0000000000000E+00  0.0000000000000E+00
196  1.9500000000000E+00  0.0000000000000E+00  0.0000000000000E+00
197  1.9600000000000E+00  0.0000000000000E+00  0.0000000000000E+00
198  1.9700000000000E+00  0.0000000000000E+00  0.0000000000000E+00
199  1.9800000000000E+00  0.0000000000000E+00  0.0000000000000E+00
200  1.9900000000000E+00  0.0000000000000E+00  0.0000000000000E+00
201  2.0000000000000E+00  0.0000000000000E+00  0.0000000000000E+00
202  2.0100000000000E+00  0.0000000000000E+00  0.0000000000000E+00
203  2.0200000000000E+00  0.0000000000000E+00  0.0000000000000E+00
204  2.0300000000000E+00  0.0000000000000E+00  0.0000000000000E+00
205  2.0400000000000E+00  0.0000000000000E+00  0.0000000000000E+00
206  2.0500000000000E+00  0.0000000000000E+00  0.0000000000000E+00
207  2.0600000000000E+00  0.0000000000000E+00  0.0000000000000E+00
208  2.0700000000000E+00  0.0000000000000E+00  0.0000000000000E+00
209  2.0800000000000E+00  0.0000000000000E+00  0.0000000000000E+00
210  2.0900000000000E+00  0.0000000000000E+00  0.0000000000000E+00
211  2.1000000000000E+00  0.0000000000000E+00  0.0000000000000E+00
212  2.1100000000000E+00  0.0000000000000E+00  0.0000000000000E+00
213  2.1200000000000E+00  0.0000000000000E+00  0.0000000000000E+00
214  2.1300000000000E+00  0.0000000000000E+00  0.0000000000000E+00
215  2.1400000000000E+00  0.0000000000000E+00  0.0000000000000E+00
216  2.1500000000000E+00  0.0000000000000E+00  0.0000000000000E+00
217  2.1600000000000E+00  0.0000000000000E+00  0.0000000000000E+00
218  2.1700000000000E+00  0.0000000000000E+00  0.0000000000000E+00
219  2.1800000000000E+00  0.0000000000000E+00  0.0000000000000E+00
220  2.1900000000000E+00  0.0000000000000E+00  0.0000000000000E+00
221  2.2000000000000E+00  0.0000000000000E+00  0.0000000000000E+00
222  2.2100000000000E+00  0.0000000000000E+00  0.0000000000000E+00
223  2.2200000000000E+00  0.0000000000000E+00  0.0000000000000E+00
224  2.2300000000000E+00  0.0000000000000E+00  0.0000000000000E+00
225  2.2400000000000E+00  0.0000000000000E+00  0.0000000000000E+00
226  2.2500000000000E+00  0.0000000000000E+00  0.0000000000000E+00
227  2.2600000000000E+00  0.0000000000000E+00  0.0000000000000E+00
228  2.2700000000000E+00  0.0000000000000E+00  0.0000000000000E+00
229  2.2800000000000E+00  0.0000000000000E+00  0.0000000000000E+00
230  2.2900000000000E+00  0.0000000000000E+00  0.0000000000000E+00
231  2.3000000000000E+00  0.0000000000000E+00  0.0000000000000E+00
232  2.3100000000000E+00  0.0000000000000E+00  0.0000000000000E+00
233  2.3200000000000E+00  0.0000000000000E+00  0.0000000000000E+00
234  2.3300000000000E+00  0.0000000000000E+00  0.0000000000000E+00
235  2.3400000000000E+00  0.0000000000000E+00  0.0000000000000E+00
236  2.3500000000000E+00  0.0000000000000E+00  0.0000000000000E+00
237  2.3600000000000E+00  0.0000000000000E+00  0.0000000000000E+00
238  2.3700000000000E+00  0.0000000000000E+00  0.0000000000000E+00
239  2.3800000000000E+00  0.0000000000000E+00  0.0000000000000E+00
240  2.3900000000000E+00  0.0000000000000E+00  0.0000000000000E+00
241  2.4000000000000E+00  0.0000000000000E+00  0.0000000000000E+00
242  2.4100000000000E+00  0.0000000000000E+00  0.0000000000000E+00
243  2.4200000000000E+00  0.0000000000000E+00  0.0000000000000E+00
244  2.4300000000000E+00  0.0000000000000E+00  0.0000000000000E+00
245  2.4400000000000E+00  0.0000000000000E+00  0.0000000000000E+00
246  2.4500000000000E+00  0.0000000000000E+00  0.0000000000000E+00
247  2.4600000000000E+00  0.0000000000000E+00  0.0000000000000E+00
248  2.4700000000000E+00  0.0000000000000E+00  0.0000000000000E+00
249  2.4800000000000E+00  0.0000000000000E+00  0.0000000000000E+00
250  2.4900000000000E+00  0.0000000000000E+00  0.0000000000000E+00
251  2.5000000000000E+00  0.0000000000000E+00  0.0000000000000E+00
252  2.5100000000000E+00  0.0000000000000E+00  0.0000000000000E+00
253  2.5200000000000E+00  0.0000000000000E+00  0.0000000000000E+00
254  2.5300000000000E+00  0.0000000000000E+00  0.0000000000000E+00
255  2.5400000000000E+00  0.0000000000000E+00  0.0000000000000E+00
256  2.5500000000000E+00  0.0000000000000E+00  0.0000000000000E+00
257  2.5600000000000E+00  0.0000000000000E+00  0.0000000000000E+00
258  2.5700000000000E+00  0.0000000000000E+00  0.0000000000000E+00
259  2.5800000000000E+00  0.0000000000000E+00  0.0000000000000E+00
260  2.5900000000000E+00  0.0000000000000E+00  0.0000000000000E+00
261  2.6000000000000E+00  0.0000000000000E+00  0.0000000000000E+00
262  2.6100000000000E+00  0.0000000000000E+00  0.0000000000000E+00
263  2.6200000000000E+00  0.0000000000000E+00  0.0000000000000E+00
264  2.6300000000000E+00  0.0000000000000E+00  0.0000000000000E+00
265  2.6400000000000E+00  0.0000000000000E+00  0.0000000000000E+00
266  2.6500000000000E+00  0.0000000000000E+00  0.0000000000000E+00
267  2.6600000000000E+00  0.0000000000000E+00  0.0000000000000E+00
268  2.6700000000000E+00  0.0000000000000E+00  0.0000000000000E+00
269  2.6800000000000E+00  0.0000000000000E+00  0.0000000000000E+00
270  2.6900000000000E+00  0.0000000000000E+00  0.0000000000000E+00
271  2.7000000000000E+00  0.0000000000000E+00  0.0000000000000E+00
272  2.7100000000000E+00  0.0000000000000E+00  0.0000000000000E+00
273  2.7200000000000E+00  0.0000000000000E+00  0.0000000000000E+00
274  2.7300000000000E+00  0.0000000000000E+00  0.0000000000000E+00
275  2.7400000000000E+00  0.0000000000000E+00  0.0000000000000E+00
276  2.7500000000000E+00  0.0000000000000E+00  0.0000000000000E+00
277  2.7600000000000E+00  0.0000000000000E+00  0.0000000000000E+00
278  2.7700000000000E+00  0.0000000000000E+00  0.0000000000000E+00
279  2.7800000000000E+00  0.0000000000000E+00  0.0000000000000E+00
280  2.7900000000000E+00  0.0000000000000E+00  0.0000000000000E+00
281  2.8000000000000E+00  0.0000000000000E+00  0.0000000000000E+00
282  2.8100000000000E+00  0.0000000000000E+00  0.0000000000000E+00
283  2.8200000000000E+00  0.0000000000000E+00  0.0000000000000E+00
284  2.8300000000000E+00  0.0000000000000E+00  0.0000000000000E+00
285  2.8400000000000E+00  0.0000000000000E+00  0.0000000000000E+00
286  2.8500000000000E+00  0.0000000000000E+00  0.0000000000000E+00
287  2.8600000000000E+00  0.0000000000000E+00  0.0000000000000E+00
288  2.8700000000000E+00  0.0000000000000E+00  0.0000000000000E+00
289  2.8800000000000E+00  0.0000000000000E+00  0.0000000000000E+00
290  2.8900000000000E+00  0.0000000000000E+00  0.0000000000000E+00
291  2.9000000000000E+00  0.0000000000000E+00  0.0000000000000E+00
292  2.9100000000000E+00  0.0000000000000E+00  0.0000000000000E+00
293  2.9200000000000E+00  0.0000000000000E+00  0.0000000000000E+00
294  2.9300000000000E+00  0.0000000000000E+00  0.0000000000000E+00
295  2.9400000000000E+00  0.0000000000000E+00  0.0000000000000E+00
296  2.9500000000000E+00  0.0000000000000E+00  0.0000000000000E+00
297  2.9600000000000E+00  0.0000000000000E+00  0.0000000000000E+00
298  2.9700000000000E+00  0.0000000000000E+00  0.0000000000000E+00
299  2.9800000000000E+00  0.0000000000000E+00  0.0000000000000E+00
300  2.9900000000000E+00  0.0000000000000E+00  0.0000000000000E+00
301  3.0000000000000E+00  0.0000000000000E+00  0.0000000000000E+00
302  3.0100000000000E+00  0.0000000000000E+00  0.0000000000000E+00
303  3.0200000000000E+00  0.0000000000000E+00  0.0000000000000E+00
304  3.0300000000000E+00  0.0000000000000E+00  0.0000000000000E+00
305  3.0400000000000E+00  0.0000000000000E+00  0.0000000000000E+00
306  3.0500000000000E+00  0.0000000000000E+00  0.0000000000000E+00
307  3.0600000000000E+00  0.0000000000000E+00  0.0000000000000E+00
308  3.0700000000000E+00  0.0000000000000E+00  0.0000000000000E+00
309  3.0800000000000E+00  0.0000000000000E+00  0.0000000000000E+00
310  3.0900000000000E+00  0.0000000000000E+00  0.0000000000000E+00
311  3.1000000000000E+00  0.0000000000000E+00  0.0000000000000E+00
312  3.1100000000000E+00  0.0000000000000E+00  0.0000000000000E+00
313  3.1200000000000E+00  0.0000000000000E+00  0.0000000000000E+00
314  3.1300000000000E+00  0.0000000000000E+00  0.0000000000000E+00
315  3.1400000000000E+00  0.0000000000000E+00  0.0000000000000E+00
316  3.1500000000000E+00  0.0000000000000E+00  0.0000000000000E+00
317  3.1600000000000E+00  0.0000000000000E+00  0.0000000000000E+00
318  3.1700000000000E+00  0.0000000000000E+00  0.0000000000000E+00
319  3.1800000000000E+00  0.0000000000000E+00  0.0000000000000E+00
320  3.1900000000000E+00  0.0000000000000E+00  0.0000000000000E+00
321  3.2000000000000E+00  0.0000000000000E+00  0.0000000000000E+00
322  3.2100000000000E+00  0.0000000000000E+00  0.0000000000000E+00
323  3.2200000000000E+00  0.0000000000000E+00  0.0000000000000E+00
324  3.2300000000000E+00  0.0000000000000E+00  0.0000000000000E+00
325  3.2400000000000E+00  0.0000000000000E+00  0.0000000000000E+00
326  3.2500000000000E+00  0.0000000000000E+00  0.0000000000000E+00
327  3.2600000000000E+00  0.0000000000000E+00  0.0000000000000E+00
328  3.2700000000000E+00  0.0000000000000E+00  0.0000000000000E+00
329  3.2800000000000E+00  0.0000000000000E+00  0.0000000000000E+00
330  3.2900000000000E+00  0.0000000000000E+00  0.0000000000000E+00
331  3.3000000000000E+00  0.0000000000000E+00  0.0000000000000E+00
332  3.3100000000000E+00  0.0000000000000E+00  0.0000000000000E+00
333  3.3200000000000E+00  0.0000000000000E+00  0.0000000000000E+00
334  3.3300000000000E+00  0.0000000000000E+00  0.0000000000000E+00
335  3.3400000000000E+00  0.0000000000000E+00  0.0000000000000E+00
336  3.3500000000000E+00  0.0000000000000E+00  0.0000000000000E+00
337  3.3600000000000E+00  0.0000000000000E+00  0.0000000000000E+00
338  3.3700000000000E+00  0.0000000000000E+00  0.0000000000000E+00
339  3.3800000000000E+00  0.0000000000000E+00  0.0000000000000E+00
340  3.3900000000000E+00  0.0000000000000E+00  0.0000000000000E+00
341  3.4000000000000E+00  0.0000000000000E+00  0.0000000000000E+00
342  3.4100000000000E+00  0.0000000000000E+00  0.0000000000000E+00
343  3.4200000000000E+00  0.0000000000000E+00  0.0000000000000E+00
344  3.4300000000000E+00  0.0000000000000E+00  0.0000000000000E+00
345  3.4400000000000E+00  0.0000000000000E+00  0.0000000000000E+00
346  3.4500000000000E+00  0.0000000000000E+00  0.0000000000000E+00
347  3.4600000000000E+00  0.0000000000000E+00  0.0000000000000E+00
348  3.4700000000000E+00  0.0000000000000E+00  0.0000000000000E+00
349  3.4800000000000E+00  0.0000000000000E+00  0.0000000000000E+00
350  3.4900000000000E+00  0.0000000000000E+00  0.0000000000000E+00
351  3.5000000000000E+00  0.0000000000000E+00  0.0000000000000E+00
352  3.5100000000000E+00  0.0000000000000E+00  0.0000000000000E+00
353  3.5200000000000E+00  0.0000000000000E+00  0.0000000000000E+00
354  3.5300000000000E+00  0.0000000000000E+00  0.0000000000000E+00
355  3.5400000000000E+00  0.0000000000000E+00  0.0000000000000E+00
356  3.5500000000000E+00  0.0000000000000E+00  0.0000000000000E+00
357  3.5600000000000E+00  0.0000000000000E+00  0.0000000000000E+00
358  3.5700000000000E+00  0.0000000000000E+00  0.0000000000000E+00
359  3.5800000000000E+00  0.0000000000000E+00  0.0000000000000E+00
360  3.5900000000000E+00  0.0000000000000E+00  0.0000000000000E+00
361  3.6000000000000E+00  0.0000000000000E+00  0.0000000000000E+00
362  3.6100000000000E+00  0.0000000000000E+00  0.0000000000000E+00
363  3.6200000000000E+00  0.0000000000000E+00  0.0000000000000E+00
364  3.6300000000000E+00  0.0000000000000E+00  0.0000000000000E+00
365  3.6400000000000E+00  0.0000000000000E+00  0.0000000000000E+00
366  3.6500000000000E+00  0.0000000000000E+00  0.0000000000000E+00
367  3.6600000000000E+00  0.0000000000000E+00  0.0000000000000E+00
368  3.6700000000000E+00  0.0000000000000E+00  0.0000000000000E+00
369  3.6800000000000E+00  0.0000000000000E+00  0.0000000000000E+00
370  3.6900000000000E+00  0.0000000000000E+00  0.0000000000000E+00
371  3.7000000000000E+00  0.0000000000000E+00  0.0000000000000E+00
372  3.7100000000000E+00  0.0000000000000E+00  0.0000000000000E+00
373  3.7200000000000E+00  0.0000000000000E+00  0.0000000000000E+00
374  3.7300000000000E+00  0.0000000000000E+00  0.0000000000000E+00
375  3.7400000000000E+00  0.0000000000000E+00  0.0000000000000E+00
376  3.7500000000000E+00  0.0000000000000E+00  0.0000000000000E+00
377  3.7600000000000E+00  0.0000000000000E+00  0.0000000000000E+00
378  3.7700000000000E+00  0.0000000000000E+00  0.0000000000000E+00
379  3.7800000000000E+00  0.0000000000000E+00  0.0000000000000E+00
380  3.7900000000000E+00  0.0000000000000E+00  0.0000000000000E+00
381  3.8000000000000E+00  0.0000000000000E+00  0.0000000000000E+00
382  3.8100000000000E+00  0.0000000000000E+00  0.0000000000000E+00
383  3.8200000000000E+00  0.0000000000000E+00  0.0000000000000E+00
384  3.8300000000000E+00  0.0000000000000E+00  0.0000000000000E+00
385  3.8400000000000E+00  0.0000000000000E+00  0.0000000000000E+00
386  3.8500000000000E+00  0.0000000000000E+00  0.0000000000000E+00
387  3.8600000000000E+00  0.0000000000000E+00  0.0000000000000E+00
388  3.8700000000000E+00  0.0000000000000E+00  0.0000000000000E+00
389  3.8800000000000E+00  0.0000000000000E+00  0.0000000000000E+00
390  3.8900000000000E+00  0.0000000000000E+00  0.0000000000000E+00
391  3.9000000000000E+00  0.0000000000000E+00  0.0000000000000E+00
392  3.9100000000000E+00  0.0000000000000E+00  0.0000000000000E+00
393  3.9200000000000E+00  0.0000000000000E+00  0.0000000000000E+00
394  3.9300000000000E+00  0.0000000000000E+00  0.0000000000000E+00
395  3.9400000000000E+00  0.0000000000000E+00  0.0000000000000E+00
396  3.9500000000000E+00  0.0000000000000E+00  0.0000000000000E+00
397  3.9600000000000E+00  0.0000000000000E+00  0.0000000000000E+00
398  3.9700000000000E+00  0.0000000000000E+00  0.0000000000000E+00
399  3.9800000000000E+00  0.0000000000000E+00  0.0000000000000E+00
400  3.9900000000000E+00  0.0000000000000E+00  0.0000000000000E+00
401  4.0000000000000E+00  0.0000000000000E+00  0.0000000000000E+00
402  4.0100000000000E+00  0.0000000000000E+00  0.0000000000000E+00
403  4.0200000000000E+00  0.0000000000000E+00  0.0000000000000E+00
404  4.0300000000000E+00  0.0000000000000E+00  0.0000000000000E+00
405  4.0400000000000E+00  0.0000000000000E+00  0.0000000000000E+00
406  4.0500000000000E+00  0.0000000000000E+00  0.0000000000000E+00
407  4.0600000000000E+00  0.0000000000000E+00  0.0000000000000E+00
408  4.0700000000000E+00  0.0000000000000E+00  0.0000000000000E+00
409  4.0800000000000E+00  0.0000000000000E+00  0.0000000000000E+00
410  4.0900000000000E+00  0.0000000000000E+00  0.0000000000000E+00
411  4.1000000000000E+00  0.0000000000000E+00  0.0000000000000E+00
412  4.1100000000000E+00  0.0000000000000E+00  0.0000000000000E+00
413  4.1200000000000E+00  0.0000000000000E+00  0.0000000000000E+00
414  4.1300000000000E+00  0.0000000000000E+00  0.0000000000000E+00
415  4.1400000000000E+00  0.0000000000000E+00  0.0000000000000E+00
416  4.1500000000000E+00  0.0000000000000E+00  0.0000000000000E+00
417  4.1600000000000E+00  0.0000000000000E+00  0.0000000000000E+00
418  4.1700000000000E+00  0.0000000000000E+00  0.0000000000000E+00
419  4.1800000000000E+00  0.0000000000000E+00  0.0000000000000E+00
420  4.1900000000000E+00  0.0000000000000E+00  0.0000000000000E+00
421  4.2000000000000E+00  0.0000000000000E+00  0.0000000000000E+00
422  4.2100000000000E+00  0.0000000000000E+00  0.0000000000000E+00
423  4.2200000000000E+00  0.0000000000000E+00  0.0000000000000E+00
424  4.2300000000000E+00  0.0000000000000E+00  0.0000000000000E+00
425  4.2400000000000E+00  0.0000000000000E+00  0.0000000000000E+00
426  4.2500000000000E+00  0.0000000000000E+00  0.0000000000000E+00
427  4.2600000000000E+00  0.0000000000000E+00  0.0000000000000E+00
428  4.2700000000000E+00  0.0000000000000E+00  0.0000000000000E+00
429  4.2800000000000E+00  0.0000000000000E+00  0.0000000000000E+00
430  4.2900000000000E+00  0.0000000000000E+00  0.0000000000000E+00
431  4.3000000000000E+00  0.0000000000000E+00  0.0000000000000E+00
432  4.3100000000000E+00  0.0000000000000E+00  0.0000000000000E+00
433  4.3200000000000E+00  0.0000000000000E+00  0.0000000000000E+00
434  4.3300000000000E+00  0.0000000000000E+00  0.0000000000000E+00
435  4.3400000000000E+00  0.0000000000000E+00  0.0000000000000E+00
436  4.3500000000000E+00  0.0000000000000E+00  0.0000000000000E+00
437  4.3600000000000E+00  0.0000000000000E+00  0.0000000000000E+00
438  4.3700000000000E+00  0.0000000000000E+00  0.0000000000000E+00
439  4.3800000000000E+00  0.0000000000000E+00  0.0000000000000E+00
440  4.3900000000000E+00  0.0000000000000E+00  0.0000000000000E+00
441  4.4000000000000E+00  0.0000000000000E+00  0.0000000000000E+00
442  4.4100000000000E+00  0.0000000000000E+00  0.0000000000000E+00
443  4.4200000000000E+00  0.0000000000000E+00  0.0000000000000E+00