Co    ONCVPSP-3.2.3.1  r_core=   1.26190   1.32357   1.66026
27.0000     17.0000      170504    zatom,zion,pspd
8      11   2     4   600     0    pspcod,pspxc,lmax,lloc,mmax,r2well
5.99000000  6.00000000  0.00000000    rchrg fchrg qchrg
2     2     2     0     0    nproj
1     1           extension_switch
0                         6.2911464145863E+00 -6.7722452653202E-01
1  0.0000000000000E+00  4.9031778637243E-11  3.7838266409018E-09
2  1.0000000000000E-02  9.2557987036786E-02  3.1469038803343E-02
3  2.0000000000000E-02  1.8484373212641E-01  6.2974077262014E-02
4  3.0000000000000E-02  2.7658588688821E-01  9.4547343172443E-02
5  4.0000000000000E-02  3.6751488804086E-01  1.2621358951831E-01
6  5.0000000000000E-02  4.5736384485459E-01  1.5798652835048E-01
7  6.0000000000000E-02  5.4586942045035E-01  1.8986546748926E-01
8  7.0000000000000E-02  6.3277270483519E-01  2.2183221315700E-01
9  8.0000000000000E-02  7.1782007751442E-01  2.5384829786570E-01
10  9.0000000000000E-02  8.0076405746202E-01  2.8585258824339E-01
11  1.0000000000000E-01  8.8136413816382E-01  3.1775932204527E-01
12  1.1000000000000E-01  9.5938760537437E-01  3.4945661742760E-01
13  1.2000000000000E-01  1.0346103351505E+00  3.8080549074303E-01
14  1.3000000000000E-01  1.1068175696451E+00  4.1163941173172E-01
15  1.4000000000000E-01  1.1758046680635E+00  4.4176441712740E-01
16  1.5000000000000E-01  1.2413778301115E+00  4.7095979547200E-01
17  1.6000000000000E-01  1.3033547891893E+00  4.9897934744227E-01
18  1.7000000000000E-01  1.3615654725256E+00  5.2555321734817E-01
19  1.8000000000000E-01  1.4158526253957E+00  5.5039028277696E-01
20  1.9000000000000E-01  1.4660723965269E+00  5.7318108074507E-01
21  2.0000000000000E-01  1.5120948817773E+00  5.9360124029483E-01
22  2.1000000000000E-01  1.5538046231716E+00  6.1131538335063E-01
23  2.2000000000000E-01  1.5911010603978E+00  6.2598144793679E-01
24  2.3000000000000E-01  1.6238989319120E+00  6.3725538066794E-01
25  2.4000000000000E-01  1.6521286228716E+00  6.4479613884906E-01
26  2.5000000000000E-01  1.6757364572125E+00  6.4827093666621E-01
27  2.6000000000000E-01  1.6946849313136E+00  6.4736066489290E-01
28  2.7000000000000E-01  1.7089528868493E+00  6.4176540936189E-01
29  2.8000000000000E-01  1.7185356206192E+00  6.3120999022491E-01
30  2.9000000000000E-01  1.7234449293618E+00  6.1544944179959E-01
31  3.0000000000000E-01  1.7237090878121E+00  5.9427435162871E-01
32  3.1000000000000E-01  1.7193727585407E+00  5.6751597728549E-01
33  3.2000000000000E-01  1.7104968324252E+00  5.3505106046461E-01
34  3.3000000000000E-01  1.6971581989445E+00  4.9680626001284E-01
35  3.4000000000000E-01  1.6794494458488E+00  4.5276212876105E-01
36  3.5000000000000E-01  1.6574784881522E+00  4.0295656330074E-01
37  3.6000000000000E-01  1.6313681268043E+00  3.4748766116634E-01
38  3.7000000000000E-01  1.6012555378278E+00  2.8651592618510E-01
39  3.8000000000000E-01  1.5672916931572E+00  2.2026576997868E-01
40  3.9000000000000E-01  1.5296407148671E+00  1.4902626566324E-01
41  4.0000000000000E-01  1.4884791649476E+00  7.3151118612040E-02
42  4.1000000000000E-01  1.4439952732500E+00 -6.9421713890110E-03
43  4.2000000000000E-01  1.3963881066938E+00 -9.0773972253867E-02
44  4.3000000000000E-01  1.3458666832877E+00 -1.7780501121024E-01
45  4.4000000000000E-01  1.2926490349648E+00 -2.6743969042782E-01
46  4.5000000000000E-01  1.2369612236702E+00 -3.5903021029501E-01
47  4.6000000000000E-01  1.1790363155512E+00 -4.5188147307959E-01
48  4.7000000000000E-01  1.1191133184888E+00 -5.4525672893042E-01
49  4.8000000000000E-01  1.0574360885681E+00 -6.3838391566399E-01
50  4.9000000000000E-01  9.9425221141035E-01 -7.3046263366934E-01
51  5.0000000000000E-01  9.2981186457195E-01 -8.2067168769991E-01
52  5.1000000000000E-01  8.6436666745949E-01 -9.0817711843542E-01
53  5.2000000000000E-01  7.9816852540533E-01 -9.9214063861573E-01
54  5.3000000000000E-01  7.3146847469260E-01 -1.0717283813955E+00
55  5.4000000000000E-01  6.6451553541244E-01 -1.1461198624580E+00
56  5.5000000000000E-01  5.9755557907347E-01 -1.2145170524422E+00
57  5.6000000000000E-01  5.3083021786450E-01 -1.2761534524890E+00
58  5.7000000000000E-01  4.6457572239473E-01 -1.3303030632477E+00
59  5.8000000000000E-01  3.9902197459947E-01 -1.3762891365793E+00
60  5.9000000000000E-01  3.3439146230565E-01 -1.4134925994737E+00
61  6.0000000000000E-01  2.7089832169847E-01 -1.4413600413987E+00
62  6.1000000000000E-01  2.0874743362213E-01 -1.4594111594089E+00
63  6.2000000000000E-01  1.4813357928371E-01 -1.4672455598643E+00
64  6.3000000000000E-01  8.9240660512637E-02 -1.4645488215124E+00
65  6.4000000000000E-01  3.2240989265548E-02 -1.4510977318665E+00
66  6.5000000000000E-01 -2.2705349446421E-02 -1.4267646173217E+00
67  6.6000000000000E-01 -7.5451057579624E-02 -1.3915206970486E+00
68  6.7000000000000E-01 -1.2586210398713E-01 -1.3454384013883E+00
69  6.8000000000000E-01 -1.7381812183197E-01 -1.2886926071299E+00
70  6.9000000000000E-01 -2.1921272170217E-01 -1.2215607544834E+00
71  7.0000000000000E-01 -2.6195371930436E-01 -1.1444218236251E+00
72  7.1000000000000E-01 -3.0196327728725E-01 -1.0577541623395E+00
73  7.2000000000000E-01 -3.3917796142346E-01 -9.6213217019612E-01
74  7.3000000000000E-01 -3.7354871205427E-01 -8.5822185879510E-01
75  7.4000000000000E-01 -4.0504073237162E-01 -7.4677532171336E-01
76  7.5000000000000E-01 -4.3363329576248E-01 -6.2862416161518E-01
77  7.6000000000000E-01 -4.5931947507466E-01 -5.0467193553657E-01
78  7.7000000000000E-01 -4.8210579726468E-01 -3.7588569225244E-01
79  7.8000000000000E-01 -5.0201182745593E-01 -2.4328668782473E-01
80  7.9000000000000E-01 -5.1906968696313E-01 -1.0794037671155E-01
81  8.0000000000000E-01 -5.3332351031889E-01  2.9054213975675E-02
82  8.1000000000000E-01 -5.4482884676750E-01  1.6657561048961E-01
83  8.2000000000000E-01 -5.5365201206330E-01  3.0349139452196E-01
84  8.3000000000000E-01 -5.5986939672353E-01  4.3866995095056E-01
85  8.4000000000000E-01 -5.6356673713438E-01  5.7099232627472E-01
86  8.5000000000000E-01 -5.6483835609175E-01  6.9936405980864E-01
87  8.6000000000000E-01 -5.6378637947297E-01  8.2272684846962E-01
88  8.7000000000000E-01 -5.6051993578167E-01  9.4006990651635E-01
89  8.8000000000000E-01 -5.5515434528435E-01  1.0504408838784E+00
90  8.9000000000000E-01 -5.4781030536529E-01  1.1529562107663E+00
91  9.0000000000000E-01 -5.3861307856659E-01  1.2468107420287E+00
92  9.1000000000000E-01 -5.2769168955545E-01  1.3312865821808E+00
93  9.2000000000000E-01 -5.1517813697385E-01  1.4057609810819E+00
94  9.3000000000000E-01 -5.0120662577967E-01  1.4697132008006E+00
95  9.4000000000000E-01 -4.8591282528853E-01  1.5227302661473E+00
96  9.5000000000000E-01 -4.6943315767620E-01  1.5645115245352E+00
97  9.6000000000000E-01 -4.5190412120819E-01  1.5948719551070E+00
98  9.7000000000000E-01 -4.3346165193357E-01  1.6137441822185E+00
99  9.8000000000000E-01 -4.1424052701496E-01  1.6211791643762E+00
100  9.9000000000000E-01 -3.9437381228430E-01  1.6173455460544E+00
101  1.0000000000000E+00 -3.7399235601606E-01  1.6025276764566E+00
102  1.0100000000000E+00 -3.5322433028369E-01  1.5771223165028E+00
103  1.0200000000000E+00 -3.3219482066401E-01  1.5416340717161E+00
104  1.0300000000000E+00 -3.1102546444014E-01  1.4966696052302E+00
105  1.0400000000000E+00 -2.8983413685925E-01  1.4429307009687E+00
106  1.0500000000000E+00 -2.6873468441303E-01  1.3812062624367E+00
107  1.0600000000000E+00 -2.4783670360041E-01  1.3123633457086E+00
108  1.0700000000000E+00 -2.2724536305688E-01  1.2373373396785E+00
109  1.0800000000000E+00 -2.0706126650470E-01  1.1571214171261E+00
110  1.0900000000000E+00 -1.8738035352631E-01  1.0727553908515E+00
111  1.1000000000000E+00 -1.6829383478463E-01  9.8531411751239E-01
112  1.1100000000000E+00 -1.4988815800558E-01  8.9589559835347E-01
113  1.1200000000000E+00 -1.3224500072599E-01  8.0560893168957E-01
114  1.1300000000000E+00 -1.1544128563682E-01  7.1556227438001E-01
115  1.1400000000000E+00 -9.9549214192359E-02  6.2685097030749E-01
116  1.1500000000000E+00 -8.4636314070476E-02  5.4054600406052E-01
117  1.1600000000000E+00 -7.0765496033985E-02  4.5768293407219E-01
118  1.1700000000000E+00 -5.7995116145299E-02  3.7925146972237E-01
119  1.1800000000000E+00 -4.6379038348353E-02  3.0618582318143E-01
120  1.1900000000000E+00 -3.5966686029290E-02  2.3935552771838E-01
121  1.2000000000000E+00 -2.6803112819953E-02  1.7955870595837E-01
122  1.2100000000000E+00 -1.8929042736157E-02  1.2751524803206E-01
123  1.2200000000000E+00 -1.2382114336753E-02  8.3856256811523E-02
124  1.2300000000000E+00 -7.1903868345949E-03  4.9058946753600E-02
125  1.2400000000000E+00 -3.3583716017384E-03  2.3325746922205E-02
126  1.2500000000000E+00 -1.0066719951025E-03  7.6267801548155E-03
127  1.2600000000000E+00 -3.4371494468756E-05  1.1420437657957E-03
128  1.2700000000000E+00  8.8939048847718E-05 -1.8567278670149E-04
129  1.2800000000000E+00 -1.9403503221341E-05  6.2467055586023E-05
130  1.2900000000000E+00 -1.1640551483963E-05  4.2656576320095E-05
131  1.3000000000000E+00  5.3551339838402E-06 -1.5070347100197E-05
132  1.3100000000000E+00 -4.7069111625367E-08 -8.4385896276832E-07
133  1.3200000000000E+00 -6.2301960214968E-08 -1.1169547439919E-06
134  1.3300000000000E+00  0.0000000000000E+00  0.0000000000000E+00
135  1.3400000000000E+00  0.0000000000000E+00  0.0000000000000E+00
136  1.3500000000000E+00  0.0000000000000E+00  0.0000000000000E+00
137  1.3600000000000E+00  0.0000000000000E+00  0.0000000000000E+00
138  1.3700000000000E+00  0.0000000000000E+00  0.0000000000000E+00
139  1.3800000000000E+00  0.0000000000000E+00  0.0000000000000E+00
140  1.3900000000000E+00  0.0000000000000E+00  0.0000000000000E+00
141  1.4000000000000E+00  0.0000000000000E+00  0.0000000000000E+00
142  1.4100000000000E+00  0.0000000000000E+00  0.0000000000000E+00
143  1.4200000000000E+00  0.0000000000000E+00  0.0000000000000E+00
144  1.4300000000000E+00  0.0000000000000E+00  0.0000000000000E+00
145  1.4400000000000E+00  0.0000000000000E+00  0.0000000000000E+00
146  1.4500000000000E+00  0.0000000000000E+00  0.0000000000000E+00
147  1.4600000000000E+00  0.0000000000000E+00  0.0000000000000E+00
148  1.4700000000000E+00  0.0000000000000E+00  0.0000000000000E+00
149  1.4800000000000E+00  0.0000000000000E+00  0.0000000000000E+00
150  1.4900000000000E+00  0.0000000000000E+00  0.0000000000000E+00
151  1.5000000000000E+00  0.0000000000000E+00  0.0000000000000E+00
152  1.5100000000000E+00  0.0000000000000E+00  0.0000000000000E+00
153  1.5200000000000E+00  0.0000000000000E+00  0.0000000000000E+00
154  1.5300000000000E+00  0.0000000000000E+00  0.0000000000000E+00
155  1.5400000000000E+00  0.0000000000000E+00  0.0000000000000E+00
156  1.5500000000000E+00  0.0000000000000E+00  0.0000000000000E+00
157  1.5600000000000E+00  0.0000000000000E+00  0.0000000000000E+00
158  1.5700000000000E+00  0.0000000000000E+00  0.0000000000000E+00
159  1.5800000000000E+00  0.0000000000000E+00  0.0000000000000E+00
160  1.5900000000000E+00  0.0000000000000E+00  0.0000000000000E+00
161  1.6000000000000E+00  0.0000000000000E+00  0.0000000000000E+00
162  1.6100000000000E+00  0.0000000000000E+00  0.0000000000000E+00
163  1.6200000000000E+00  0.0000000000000E+00  0.0000000000000E+00
164  1.6300000000000E+00  0.0000000000000E+00  0.0000000000000E+00
165  1.6400000000000E+00  0.0000000000000E+00  0.0000000000000E+00
166  1.6500000000000E+00  0.0000000000000E+00  0.0000000000000E+00
167  1.6600000000000E+00  0.0000000000000E+00  0.0000000000000E+00
168  1.6700000000000E+00  0.0000000000000E+00  0.0000000000000E+00
169  1.6800000000000E+00  0.0000000000000E+00  0.0000000000000E+00
170  1.6900000000000E+00  0.0000000000000E+00  0.0000000000000E+00
171  1.7000000000000E+00  0.0000000000000E+00  0.0000000000000E+00
172  1.7100000000000E+00  0.0000000000000E+00  0.0000000000000E+00
173  1.7200000000000E+00  0.0000000000000E+00  0.0000000000000E+00
174  1.7300000000000E+00  0.0000000000000E+00  0.0000000000000E+00
175  1.7400000000000E+00  0.0000000000000E+00  0.0000000000000E+00
176  1.7500000000000E+00  0.0000000000000E+00  0.0000000000000E+00
177  1.7600000000000E+00  0.0000000000000E+00  0.0000000000000E+00
178  1.7700000000000E+00  0.0000000000000E+00  0.0000000000000E+00
179  1.7800000000000E+00  0.0000000000000E+00  0.0000000000000E+00
180  1.7900000000000E+00  0.0000000000000E+00  0.0000000000000E+00
181  1.8000000000000E+00  0.0000000000000E+00  0.0000000000000E+00
182  1.8100000000000E+00  0.0000000000000E+00  0.0000000000000E+00
183  1.8200000000000E+00  0.0000000000000E+00  0.0000000000000E+00
184  1.8300000000000E+00  0.0000000000000E+00  0.0000000000000E+00
185  1.8400000000000E+00  0.0000000000000E+00  0.0000000000000E+00
186  1.8500000000000E+00  0.0000000000000E+00  0.0000000000000E+00
187  1.8600000000000E+00  0.0000000000000E+00  0.0000000000000E+00
188  1.8700000000000E+00  0.0000000000000E+00  0.0000000000000E+00
189  1.8800000000000E+00  0.0000000000000E+00  0.0000000000000E+00
190  1.8900000000000E+00  0.0000000000000E+00  0.0000000000000E+00
191  1.9000000000000E+00  0.0000000000000E+00  0.0000000000000E+00
192  1.9100000000000E+00  0.0000000000000E+00  0.0000000000000E+00
193  1.9200000000000E+00  0.0000000000000E+00  0.0000000000000E+00
194  1.9300000000000E+00  0.0000000000000E+00  0.0000000000000E+00
195  1.9400000000000E+00  0.0000000000000E+00  0.0000000000000E+00
196  1.9500000000000E+00  0.0000000000000E+00  0.0000000000000E+00
197  1.9600000000000E+00  0.0000000000000E+00  0.0000000000000E+00
198  1.9700000000000E+00  0.0000000000000E+00  0.0000000000000E+00
199  1.9800000000000E+00  0.0000000000000E+00  0.0000000000000E+00
200  1.9900000000000E+00  0.0000000000000E+00  0.0000000000000E+00
201  2.0000000000000E+00  0.0000000000000E+00  0.0000000000000E+00
202  2.0100000000000E+00  0.0000000000000E+00  0.0000000000000E+00
203  2.0200000000000E+00  0.0000000000000E+00  0.0000000000000E+00
204  2.0300000000000E+00  0.0000000000000E+00  0.0000000000000E+00
205  2.0400000000000E+00  0.0000000000000E+00  0.0000000000000E+00
206  2.0500000000000E+00  0.0000000000000E+00  0.0000000000000E+00
207  2.0600000000000E+00  0.0000000000000E+00  0.0000000000000E+00
208  2.0700000000000E+00  0.0000000000000E+00  0.0000000000000E+00
209  2.0800000000000E+00  0.0000000000000E+00  0.0000000000000E+00
210  2.0900000000000E+00  0.0000000000000E+00  0.0000000000000E+00
211  2.1000000000000E+00  0.0000000000000E+00  0.0000000000000E+00
212  2.1100000000000E+00  0.0000000000000E+00  0.0000000000000E+00
213  2.1200000000000E+00  0.0000000000000E+00  0.0000000000000E+00
214  2.1300000000000E+00  0.0000000000000E+00  0.0000000000000E+00
215  2.1400000000000E+00  0.0000000000000E+00  0.0000000000000E+00
216  2.1500000000000E+00  0.0000000000000E+00  0.0000000000000E+00
217  2.1600000000000E+00  0.0000000000000E+00  0.0000000000000E+00
218  2.1700000000000E+00  0.0000000000000E+00  0.0000000000000E+00
219  2.1800000000000E+00  0.0000000000000E+00  0.0000000000000E+00
220  2.1900000000000E+00  0.0000000000000E+00  0.0000000000000E+00
221  2.2000000000000E+00  0.0000000000000E+00  0.0000000000000E+00
222  2.2100000000000E+00  0.0000000000000E+00  0.0000000000000E+00
223  2.2200000000000E+00  0.0000000000000E+00  0.0000000000000E+00
224  2.2300000000000E+00  0.0000000000000E+00  0.0000000000000E+00
225  2.2400000000000E+00  0.0000000000000E+00  0.0000000000000E+00
226  2.2500000000000E+00  0.0000000000000E+00  0.0000000000000E+00
227  2.2600000000000E+00  0.0000000000000E+00  0.0000000000000E+00
228  2.2700000000000E+00  0.0000000000000E+00  0.0000000000000E+00
229  2.2800000000000E+00  0.0000000000000E+00  0.0000000000000E+00
230  2.2900000000000E+00  0.0000000000000E+00  0.0000000000000E+00
231  2.3000000000000E+00  0.0000000000000E+00  0.0000000000000E+00
232  2.3100000000000E+00  0.0000000000000E+00  0.0000000000000E+00
233  2.3200000000000E+00  0.0000000000000E+00  0.0000000000000E+00
234  2.3300000000000E+00  0.0000000000000E+00  0.0000000000000E+00
235  2.3400000000000E+00  0.0000000000000E+00  0.0000000000000E+00
236  2.3500000000000E+00  0.0000000000000E+00  0.0000000000000E+00
237  2.3600000000000E+00  0.0000000000000E+00  0.0000000000000E+00
238  2.3700000000000E+00  0.0000000000000E+00  0.0000000000000E+00
239  2.3800000000000E+00  0.0000000000000E+00  0.0000000000000E+00
240  2.3900000000000E+00  0.0000000000000E+00  0.0000000000000E+00
241  2.4000000000000E+00  0.0000000000000E+00  0.0000000000000E+00
242  2.4100000000000E+00  0.0000000000000E+00  0.0000000000000E+00
243  2.4200000000000E+00  0.0000000000000E+00  0.0000000000000E+00
244  2.4300000000000E+00  0.0000000000000E+00  0.0000000000000E+00
245  2.4400000000000E+00  0.0000000000000E+00  0.0000000000000E+00
246  2.4500000000000E+00  0.0000000000000E+00  0.0000000000000E+00
247  2.4600000000000E+00  0.0000000000000E+00  0.0000000000000E+00
248  2.4700000000000E+00  0.0000000000000E+00  0.0000000000000E+00
249  2.4800000000000E+00  0.0000000000000E+00  0.0000000000000E+00
250  2.4900000000000E+00  0.0000000000000E+00  0.0000000000000E+00
251  2.5000000000000E+00  0.0000000000000E+00  0.0000000000000E+00
252  2.5100000000000E+00  0.0000000000000E+00  0.0000000000000E+00
253  2.5200000000000E+00  0.0000000000000E+00  0.0000000000000E+00
254  2.5300000000000E+00  0.0000000000000E+00  0.0000000000000E+00
255  2.5400000000000E+00  0.0000000000000E+00  0.0000000000000E+00
256  2.5500000000000E+00  0.0000000000000E+00  0.0000000000000E+00
257  2.5600000000000E+00  0.0000000000000E+00  0.0000000000000E+00
258  2.5700000000000E+00  0.0000000000000E+00  0.0000000000000E+00
259  2.5800000000000E+00  0.0000000000000E+00  0.0000000000000E+00
260  2.5900000000000E+00  0.0000000000000E+00  0.0000000000000E+00
261  2.6000000000000E+00  0.0000000000000E+00  0.0000000000000E+00
262  2.6100000000000E+00  0.0000000000000E+00  0.0000000000000E+00
263  2.6200000000000E+00  0.0000000000000E+00  0.0000000000000E+00
264  2.6300000000000E+00  0.0000000000000E+00  0.0000000000000E+00
265  2.6400000000000E+00  0.0000000000000E+00  0.0000000000000E+00
266  2.6500000000000E+00  0.0000000000000E+00  0.0000000000000E+00
267  2.6600000000000E+00  0.0000000000000E+00  0.0000000000000E+00
268  2.6700000000000E+00  0.0000000000000E+00  0.0000000000000E+00
269  2.6800000000000E+00  0.0000000000000E+00  0.0000000000000E+00
270  2.6900000000000E+00  0.0000000000000E+00  0.0000000000000E+00
271  2.7000000000000E+00  0.0000000000000E+00  0.0000000000000E+00
272  2.7100000000000E+00  0.0000000000000E+00  0.0000000000000E+00
273  2.7200000000000E+00  0.0000000000000E+00  0.0000000000000E+00
274  2.7300000000000E+00  0.0000000000000E+00  0.0000000000000E+00
275  2.7400000000000E+00  0.0000000000000E+00  0.0000000000000E+00
276  2.7500000000000E+00  0.0000000000000E+00  0.0000000000000E+00
277  2.7600000000000E+00  0.0000000000000E+00  0.0000000000000E+00
278  2.7700000000000E+00  0.0000000000000E+00  0.0000000000000E+00
279  2.7800000000000E+00  0.0000000000000E+00  0.0000000000000E+00
280  2.7900000000000E+00  0.0000000000000E+00  0.0000000000000E+00
281  2.8000000000000E+00  0.0000000000000E+00  0.0000000000000E+00
282  2.8100000000000E+00  0.0000000000000E+00  0.0000000000000E+00
283  2.8200000000000E+00  0.0000000000000E+00  0.0000000000000E+00
284  2.8300000000000E+00  0.0000000000000E+00  0.0000000000000E+00
285  2.8400000000000E+00  0.0000000000000E+00  0.0000000000000E+00
286  2.8500000000000E+00  0.0000000000000E+00  0.0000000000000E+00
287  2.8600000000000E+00  0.0000000000000E+00  0.0000000000000E+00
288  2.8700000000000E+00  0.0000000000000E+00  0.0000000000000E+00
289  2.8800000000000E+00  0.0000000000000E+00  0.0000000000000E+00
290  2.8900000000000E+00  0.0000000000000E+00  0.0000000000000E+00
291  2.9000000000000E+00  0.0000000000000E+00  0.0000000000000E+00
292  2.9100000000000E+00  0.0000000000000E+00  0.0000000000000E+00
293  2.9200000000000E+00  0.0000000000000E+00  0.0000000000000E+00
294  2.9300000000000E+00  0.0000000000000E+00  0.0000000000000E+00
295  2.9400000000000E+00  0.0000000000000E+00  0.0000000000000E+00
296  2.9500000000000E+00  0.0000000000000E+00  0.0000000000000E+00
297  2.9600000000000E+00  0.0000000000000E+00  0.0000000000000E+00
298  2.9700000000000E+00  0.0000000000000E+00  0.0000000000000E+00
299  2.9800000000000E+00  0.0000000000000E+00  0.0000000000000E+00
300  2.9900000000000E+00  0.0000000000000E+00  0.0000000000000E+00
301  3.0000000000000E+00  0.0000000000000E+00  0.0000000000000E+00
302  3.0100000000000E+00  0.0000000000000E+00  0.0000000000000E+00
303  3.0200000000000E+00  0.0000000000000E+00  0.0000000000000E+00
304  3.0300000000000E+00  0.0000000000000E+00  0.0000000000000E+00
305  3.0400000000000E+00  0.0000000000000E+00  0.0000000000000E+00
306  3.0500000000000E+00  0.0000000000000E+00  0.0000000000000E+00
307  3.0600000000000E+00  0.0000000000000E+00  0.0000000000000E+00
308  3.0700000000000E+00  0.0000000000000E+00  0.0000000000000E+00
309  3.0800000000000E+00  0.0000000000000E+00  0.0000000000000E+00
310  3.0900000000000E+00  0.0000000000000E+00  0.0000000000000E+00
311  3.1000000000000E+00  0.0000000000000E+00  0.0000000000000E+00
312  3.1100000000000E+00  0.0000000000000E+00  0.0000000000000E+00
313  3.1200000000000E+00  0.0000000000000E+00  0.0000000000000E+00
314  3.1300000000000E+00  0.0000000000000E+00  0.0000000000000E+00
315  3.1400000000000E+00  0.0000000000000E+00  0.0000000000000E+00
316  3.1500000000000E+00  0.0000000000000E+00  0.0000000000000E+00
317  3.1600000000000E+00  0.0000000000000E+00  0.0000000000000E+00
318  3.1700000000000E+00  0.0000000000000E+00  0.0000000000000E+00
319  3.1800000000000E+00  0.0000000000000E+00  0.0000000000000E+00
320  3.1900000000000E+00  0.0000000000000E+00  0.0000000000000E+00
321  3.2000000000000E+00  0.0000000000000E+00  0.0000000000000E+00
322  3.2100000000000E+00  0.0000000000000E+00  0.0000000000000E+00
323  3.2200000000000E+00  0.0000000000000E+00  0.0000000000000E+00
324  3.2300000000000E+00  0.0000000000000E+00  0.0000000000000E+00
325  3.2400000000000E+00  0.0000000000000E+00  0.0000000000000E+00
326  3.2500000000000E+00  0.0000000000000E+00  0.0000000000000E+00
327  3.2600000000000E+00  0.0000000000000E+00  0.0000000000000E+00
328  3.2700000000000E+00  0.0000000000000E+00  0.0000000000000E+00
329  3.2800000000000E+00  0.0000000000000E+00  0.0000000000000E+00
330  3.2900000000000E+00  0.0000000000000E+00  0.0000000000000E+00
331  3.3000000000000E+00  0.0000000000000E+00  0.0000000000000E+00
332  3.3100000000000E+00  0.0000000000000E+00  0.0000000000000E+00
333  3.3200000000000E+00  0.0000000000000E+00  0.0000000000000E+00
334  3.3300000000000E+00  0.0000000000000E+00  0.0000000000000E+00
335  3.3400000000000E+00  0.0000000000000E+00  0.0000000000000E+00
336  3.3500000000000E+00  0.0000000000000E+00  0.0000000000000E+00
337  3.3600000000000E+00  0.0000000000000E+00  0.0000000000000E+00
338  3.3700000000000E+00  0.0000000000000E+00  0.0000000000000E+00
339  3.3800000000000E+00  0.0000000000000E+00  0.0000000000000E+00
340  3.3900000000000E+00  0.0000000000000E+00  0.0000000000000E+00
341  3.4000000000000E+00  0.0000000000000E+00  0.0000000000000E+00
342  3.4100000000000E+00  0.0000000000000E+00  0.0000000000000E+00
343  3.4200000000000E+00  0.0000000000000E+00  0.0000000000000E+00
344  3.4300000000000E+00  0.0000000000000E+00  0.0000000000000E+00
345  3.4400000000000E+00  0.0000000000000E+00  0.0000000000000E+00
346  3.4500000000000E+00  0.0000000000000E+00  0.0000000000000E+00
347  3.4600000000000E+00  0.0000000000000E+00  0.0000000000000E+00
348  3.4700000000000E+00  0.0000000000000E+00  0.0000000000000E+00
349  3.4800000000000E+00  0.0000000000000E+00  0.0000000000000E+00
350  3.4900000000000E+00  0.0000000000000E+00  0.0000000000000E+00
351  3.5000000000000E+00  0.0000000000000E+00  0.0000000000000E+00
352  3.5100000000000E+00  0.0000000000000E+00  0.0000000000000E+00
353  3.5200000000000E+00  0.0000000000000E+00  0.0000000000000E+00
354  3.5300000000000E+00  0.0000000000000E+00  0.0000000000000E+00
355  3.5400000000000E+00  0.0000000000000E+00  0.0000000000000E+00
356  3.5500000000000E+00  0.0000000000000E+00  0.0000000000000E+00
357  3.5600000000000E+00  0.0000000000000E+00  0.0000000000000E+00
358  3.5700000000000E+00  0.0000000000000E+00  0.0000000000000E+00
359  3.5800000000000E+00  0.0000000000000E+00  0.0000000000000E+00
360  3.5900000000000E+00  0.0000000000000E+00  0.0000000000000E+00
361  3.6000000000000E+00  0.0000000000000E+00  0.0000000000000E+00
362  3.6100000000000E+00  0.0000000000000E+00  0.0000000000000E+00
363  3.6200000000000E+00  0.0000000000000E+00  0.0000000000000E+00
364  3.6300000000000E+00  0.0000000000000E+00  0.0000000000000E+00
365  3.6400000000000E+00  0.0000000000000E+00  0.0000000000000E+00
366  3.6500000000000E+00  0.0000000000000E+00  0.0000000000000E+00
367  3.6600000000000E+00  0.0000000000000E+00  0.0000000000000E+00
368  3.6700000000000E+00  0.0000000000000E+00  0.0000000000000E+00
369  3.6800000000000E+00  0.0000000000000E+00  0.0000000000000E+00
370  3.6900000000000E+00  0.0000000000000E+00  0.0000000000000E+00
371  3.7000000000000E+00  0.0000000000000E+00  0.0000000000000E+00
372  3.7100000000000E+00  0.0000000000000E+00  0.0000000000000E+00
373  3.7200000000000E+00  0.0000000000000E+00  0.0000000000000E+00
374  3.7300000000000E+00  0.0000000000000E+00  0.0000000000000E+00
375  3.7400000000000E+00  0.0000000000000E+00  0.0000000000000E+00
376  3.7500000000000E+00  0.0000000000000E+00  0.0000000000000E+00
377  3.7600000000000E+00  0.0000000000000E+00  0.0000000000000E+00
378  3.7700000000000E+00  0.0000000000000E+00  0.0000000000000E+00
379  3.7800000000000E+00  0.0000000000000E+00  0.0000000000000E+00
380  3.7900000000000E+00  0.0000000000000E+00  0.0000000000000E+00
381  3.8000000000000E+00  0.0000000000000E+00  0.0000000000000E+00
382  3.8100000000000E+00  0.0000000000000E+00  0.0000000000000E+00
383  3.8200000000000E+00  0.0000000000000E+00  0.0000000000000E+00
384  3.8300000000000E+00  0.0000000000000E+00  0.0000000000000E+00
385  3.8400000000000E+00  0.0000000000000E+00  0.0000000000000E+00
386  3.8500000000000E+00  0.0000000000000E+00  0.0000000000000E+00
387  3.8600000000000E+00  0.0000000000000E+00  0.0000000000000E+00
388  3.8700000000000E+00  0.0000000000000E+00  0.0000000000000E+00
389  3.8800000000000E+00  0.0000000000000E+00  0.0000000000000E+00
390  3.8900000000000E+00  0.0000000000000E+00  0.0000000000000E+00
391  3.9000000000000E+00  0.0000000000000E+00  0.0000000000000E+00
392  3.9100000000000E+00  0.0000000000000E+00  0.0000000000000E+00
393  3.9200000000000E+00  0.0000000000000E+00  0.0000000000000E+00
394  3.9300000000000E+00  0.0000000000000E+00  0.0000000000000E+00
395  3.9400000000000E+00  0.0000000000000E+00  0.0000000000000E+00
396  3.9500000000000E+00  0.0000000000000E+00  0.0000000000000E+00
397  3.9600000000000E+00  0.0000000000000E+00  0.0000000000000E+00
398  3.9700000000000E+00  0.0000000000000E+00  0.0000000000000E+00
399  3.9800000000000E+00  0.0000000000000E+00  0.0000000000000E+00
400  3.9900000000000E+00  0.0000000000000E+00  0.0000000000000E+00
401  4.0000000000000E+00  0.0000000000000E+00  0.0000000000000E+00
402  4.0100000000000E+00  0.0000000000000E+00  0.0000000000000E+00
403  4.0200000000000E+00  0.0000000000000E+00  0.0000000000000E+00
404  4.0300000000000E+00  0.0000000000000E+00  0.0000000000000E+00
405  4.0400000000000E+00  0.0000000000000E+00  0.0000000000000E+00
406  4.0500000000000E+00  0.0000000000000E+00  0.0000000000000E+00
407  4.0600000000000E+00  0.0000000000000E+00  0.0000000000000E+00
408  4.0700000000000E+00  0.0000000000000E+00  0.0000000000000E+00
409  4.0800000000000E+00  0.0000000000000E+00  0.0000000000000E+00
410  4.0900000000000E+00  0.0000000000000E+00  0.0000000000000E+00
411  4.1000000000000E+00  0.0000000000000E+00  0.0000000000000E+00
412  4.1100000000000E+00  0.0000000000000E+00  0.0000000000000E+00
413  4.1200000000000E+00  0.0000000000000E+00  0.0000000000000E+00
414  4.1300000000000E+00  0.0000000000000E+00  0.0000000000000E+00
415  4.1400000000000E+00  0.0000000000000E+00  0.0000000000000E+00
416  4.1500000000000E+00  0.0000000000000E+00  0.0000000000000E+00
417  4.1600000000000E+00  0.0000000000000E+00  0.0000000000000E+00
418  4.1700000000000E+00  0.0000000000000E+00  0.0000000000000E+00
419  4.1800000000000E+00  0.0000000000000E+00  0.0000000000000E+00
420  4.1900000000000E+00  0.0000000000000E+00  0.0000000000000E+00
421  4.2000000000000E+00  0.0000000000000E+00  0.0000000000000E+00
422  4.2100000000000E+00  0.0000000000000E+00  0.0000000000000E+00
423  4.2200000000000E+00  0.0000000000000E+00  0.0000000000000E+00
424  4.2300000000000E+00  0.0000000000000E+00  0.0000000000000E+00
425  4.2400000000000E+00  0.0000000000000E+00  0.0000000000000E+00
426  4.2500000000000E+00  0.0000000000000E+00  0.0000000000000E+00
427  4.2600000000000E+00  0.0000000000000E+00  0.0000000000000E+00
428  4.2700000000000E+00  0.0000000000000E+00  0.0000000000000E+00
429  4.2800000000000E+00  0.0000000000000E+00  0.0000000000000E+00
430  4.2900000000000E+00  0.0000000000000E+00  0.0000000000000E+00
431  4.3000000000000E+00  0.0000000000000E+00  0.0000000000000E+00
432  4.3100000000000E+00  0.0000000000000E+00  0.0000000000000E+00
433  4.3200000000000E+00  0.0000000000000E+00  0.0000000000000E+00
434  4.3300000000000E+00  0.0000000000000E+00  0.0000000000000E+00
435  4.3400000000000E+00  0.0000000000000E+00  0.0000000000000E+00
436  4.3500000000000E+00  0.0000000000000E+00  0.0000000000000E+00
437  4.3600000000000E+00  0.0000000000000E+00  0.0000000000000E+00
438  4.3700000000000E+00  0.0000000000000E+00  0.0000000000000E+00
439  4.3800000000000E+00  0.0000000000000E+00  0.0000000000000E+00
440  4.3900000000000E+00  0.0000000000000E+00  0.0000000000000E+00
441  4.4000000000000E+00  0.0000000000000E+00  0.0000000000000E+00
442  4.4100000000000E+00  0.0000000000000E+00  0.0000000000000E+00
443  4.4200000000000E+00  0.0000000000000E+00  0.0000000000000E+00