Ga    ONCVPSP-3.2.3.1  r_core=   1.66857   1.75011   1.90252
31.0000     13.0000      170504    zatom,zion,pspd
8      11   2     4   600     0    pspcod,pspxc,lmax,lloc,mmax,r2well
5.99000000  5.00000000  0.00000000    rchrg fchrg qchrg
2     2     2     0     0    nproj
1     1           extension_switch
0                         7.0297819100491E+00  1.1446754534975E+00
1  0.0000000000000E+00  1.6597837809024E-09 -3.1243767018019E-09
2  1.0000000000000E-02 -1.5150748519401E-03  4.6206510899994E-02
3  2.0000000000000E-02 -2.7215143336088E-03  9.1832522305198E-02
4  3.0000000000000E-02 -3.3143166159496E-03  1.3630430908401E-01
5  4.0000000000000E-02 -2.9957070991108E-03  1.7906162003531E-01
6  5.0000000000000E-02 -1.4786528200116E-03  2.1956422866591E-01
7  6.0000000000000E-02  1.5097410001354E-03  2.5729826277984E-01
8  7.0000000000000E-02  6.2249895876561E-03  2.9178224285340E-01
9  8.0000000000000E-02  1.2902178087130E-02  3.2257276229460E-01
10  9.0000000000000E-02  2.1753135488525E-02  3.4926974652896E-01
11  1.0000000000000E-01  3.2963864225617E-02  3.7152123237652E-01
12  1.1000000000000E-01  4.6692253922174E-02  3.8902761433887E-01
13  1.2000000000000E-01  6.3066104717172E-02  4.0154531014665E-01
14  1.3000000000000E-01  8.2181482280125E-02  4.0888980416671E-01
15  1.4000000000000E-01  1.0410142306721E-01  4.1093803396814E-01
16  1.5000000000000E-01  1.2885500460586E-01  4.0763009242804E-01
17  1.6000000000000E-01  1.5643679166921E-01  3.9897022514527E-01
18  1.7000000000000E-01  1.8680666515371E-01  3.8502711054674E-01
19  1.8000000000000E-01  2.1989003634610E-01  3.6593341783519E-01
20  1.9000000000000E-01  2.5557844510286E-01  3.4188464575776E-01
21  2.0000000000000E-01  2.9373053631101E-01  3.1313725298793E-01
22  2.1000000000000E-01  3.3417340489699E-01  2.8000609862728E-01
23  2.2000000000000E-01  3.7670429564432E-01  2.4286121886487E-01
24  2.3000000000000E-01  4.2109264021306E-01  2.0212397310192E-01
25  2.4000000000000E-01  4.6708241006667E-01  1.5826259977872E-01
26  2.5000000000000E-01  5.1439476054306E-01  1.1178722865664E-01
27  2.6000000000000E-01  5.6273093809497E-01  6.3244402338615E-02
28  2.7000000000000E-01  6.1177541980421E-01  1.3211165293199E-02
29  2.8000000000000E-01  6.6119925167629E-01 -3.7711216480670E-02
30  2.9000000000000E-01  7.1066354997559E-01 -8.8903837801539E-02
31  3.0000000000000E-01  7.5982312799074E-01 -1.3973696781921E-01
32  3.1000000000000E-01  8.0833020914636E-01 -1.8957702109593E-01
33  3.2000000000000E-01  8.5583818631769E-01 -2.3779361068491E-01
34  3.3000000000000E-01  9.0200538657078E-01 -2.8376660646795E-01
35  3.4000000000000E-01  9.4649880035207E-01 -3.2689312166425E-01
36  3.5000000000000E-01  9.8899773438941E-01 -3.6659435089762E-01
37  3.6000000000000E-01  1.0291973482420E+00 -4.0232218450732E-01
38  3.7000000000000E-01  1.0668120355426E+00 -4.3356552589758E-01
39  3.8000000000000E-01  1.1015786125036E+00 -4.5985624162261E-01
40  3.9000000000000E-01  1.1332592781892E+00 -4.8077467757094E-01
41  4.0000000000000E-01  1.1616443133794E+00 -4.9595467900753E-01
42  4.1000000000000E-01  1.1865544875325E+00 -5.0508805731140E-01
43  4.2000000000000E-01  1.2078431463743E+00 -5.0792845195923E-01
44  4.3000000000000E-01  1.2253979559717E+00 -5.0429454259290E-01
45  4.4000000000000E-01  1.2391422827401E+00 -4.9407257280687E-01
46  4.5000000000000E-01  1.2490361926759E+00 -4.7721815452970E-01
47  4.6000000000000E-01  1.2550770571254E+00 -4.5375732947765E-01
48  4.7000000000000E-01  1.2572997565874E+00 -4.2378687204735E-01
49  4.8000000000000E-01  1.2557764783352E+00 -3.8747382610844E-01
50  4.9000000000000E-01  1.2506161079968E+00 -3.4505427636542E-01
51  5.0000000000000E-01  1.2419632196065E+00 -2.9683136320277E-01
52  5.1000000000000E-01  1.2299966729814E+00 -2.4317255811026E-01
53  5.2000000000000E-01  1.2149278315486E+00 -1.8450622482998E-01
54  5.3000000000000E-01  1.1969984178936E+00 -1.2131749917293E-01
55  5.4000000000000E-01  1.1764780282852E+00 -5.4143527957411E-02
56  5.5000000000000E-01  1.1536613312077E+00  1.6431885382815E-02
57  5.6000000000000E-01  1.1288649784512E+00  8.9784174344269E-02
58  5.7000000000000E-01  1.1024242605561E+00  1.6525438178892E-01
59  5.8000000000000E-01  1.0746895413076E+00  2.4215594554818E-01
60  5.9000000000000E-01  1.0460225085466E+00  3.1978182666677E-01
61  6.0000000000000E-01  1.0167922807178E+00  3.9741190571074E-01
62  6.1000000000000E-01  9.8737141034840E-01  4.7432056926279E-01
63  6.2000000000000E-01  9.5813182696660E-01  5.4978440626761E-01
64  6.3000000000000E-01  9.2944076285755E-01  6.2308993225923E-01
65  6.4000000000000E-01  9.0165670546697E-01  6.9354125875041E-01
66  6.5000000000000E-01  8.7512542022141E-01  7.6046762518295E-01
67  6.6000000000000E-01  8.5017608701558E-01  8.2323071185039E-01
68  6.7000000000000E-01  8.2711759263540E-01  8.8123165409389E-01
69  6.8000000000000E-01  8.0623501995471E-01  9.3391768080719E-01
70  6.9000000000000E-01  7.8778637285273E-01  9.8078830388954E-01
71  7.0000000000000E-01  7.7199957349697E-01  1.0214009896647E+00
72  7.1000000000000E-01  7.5906976591549E-01  1.0553762484503E+00
73  7.2000000000000E-01  7.4915695670724E-01  1.0824020842964E+00
74  7.3000000000000E-01  7.4238402028461E-01  1.1022377534608E+00
75  7.4000000000000E-01  7.3883509230418E-01  1.1147167872686E+00
76  7.5000000000000E-01  7.3855437091823E-01  1.1197492426219E+00
77  7.6000000000000E-01  7.4154534122613E-01  1.1173231514745E+00
78  7.7000000000000E-01  7.4777043385818E-01  1.1075051489949E+00
79  7.8000000000000E-01  7.5715112405607E-01  1.0904402687799E+00
80  7.9000000000000E-01  7.6956847292412E-01  1.0663509023426E+00
81  8.0000000000000E-01  7.8486410781369E-01  1.0355349290028E+00
82  8.1000000000000E-01  8.0284163409182E-01  9.9836303119928E-01
83  8.2000000000000E-01  8.2326846588936E-01  9.5527521903648E-01
84  8.3000000000000E-01  8.4587805887653E-01  9.0677659645543E-01
85  8.4000000000000E-01  8.7037252372284E-01  8.5343240969903E-01
86  8.5000000000000E-01  8.9642559471224E-01  7.9586242663393E-01
87  8.6000000000000E-01  9.2368592404703E-01  7.3473470290652E-01
88  8.7000000000000E-01  9.5178066873218E-01  6.7075879776761E-01
89  8.8000000000000E-01  9.8031933362226E-01  6.0467850862382E-01
90  8.9000000000000E-01  1.0088978312765E+00  5.3726419889235E-01
91  9.0000000000000E-01  1.0371027167347E+00  4.6930479848696E-01
92  9.1000000000000E-01  1.0645155532287E+00  4.0159956019145E-01
93  9.2000000000000E-01  1.0907173632045E+00  3.3494965823716E-01
94  9.3000000000000E-01  1.1152931178691E+00  2.7014971755426E-01
95  9.4000000000000E-01  1.1378362178077E+00  2.0797936338938E-01
96  9.5000000000000E-01  1.1579529170653E+00  1.4919488122561E-01
97  9.6000000000000E-01  1.1752666434072E+00  9.4521076293602E-02
98  9.7000000000000E-01  1.1894221683478E+00  4.4643420262562E-02
99  9.8000000000000E-01  1.2000895818778E+00  2.0057012880041E-04
100  9.9000000000000E-01  1.2069680286613E+00 -3.8222659207831E-02
101  1.0000000000000E+00  1.2097891647852E+00 -7.0101791597613E-02
102  1.0100000000000E+00  1.2083202968936E+00 -9.4978583677913E-02
103  1.0200000000000E+00  1.2023671687741E+00 -1.1246625060116E-01
104  1.0300000000000E+00  1.1917763639529E+00 -1.2225396439290E-01
105  1.0400000000000E+00  1.1764372967866E+00 -1.2411057334261E-01
106  1.0500000000000E+00  1.1562837688766E+00 -1.1788749906139E-01
107  1.0600000000000E+00  1.1312950720133E+00 -1.0352077615229E-01
108  1.0700000000000E+00  1.1014966236478E+00 -8.1032208511366E-02
109  1.0800000000000E+00  1.0669601259199E+00 -5.0529625821554E-02
110  1.0900000000000E+00  1.0278032437691E+00 -1.2206232307178E-02
111  1.1000000000000E+00  9.8418880350881E-01  3.3660949093750E-02
112  1.1100000000000E+00  9.3632351771495E-01  8.6713525527066E-02
113  1.1200000000000E+00  8.8445624786442E-01  1.4651505381459E-01
114  1.1300000000000E+00  8.2887582037321E-01  2.1255520069874E-01
115  1.1400000000000E+00  7.6990841724183E-01  2.8425470309379E-01
116  1.1500000000000E+00  7.0791456677661E-01  3.6097107965210E-01
117  1.1600000000000E+00  6.4328576449293E-01  4.4200503620154E-01
118  1.1700000000000E+00  5.7644075753580E-01  5.2660750151764E-01
119  1.1800000000000E+00  5.0782153073620E-01  6.1398722087762E-01
120  1.1900000000000E+00  4.3788903519146E-01  7.0331882963181E-01
121  1.2000000000000E+00  3.6711870323895E-01  7.9375132342693E-01
122  1.2100000000000E+00  2.9599579571750E-01  8.8441683790538E-01
123  1.2200000000000E+00  2.2501063037044E-01  9.7443964516725E-01
124  1.2300000000000E+00  1.5465374074425E-01  1.0629452733736E+00
125  1.2400000000000E+00  8.5411016093392E-02  1.1490696537073E+00
126  1.2500000000000E+00  1.7758873714105E-02  1.2319681972539E+00
127  1.2600000000000E+00 -4.7840485945271E-02  1.3108247064507E+00
128  1.2700000000000E+00 -1.1094369098938E-01  1.3848600256593E+00
129  1.2800000000000E+00 -1.7113062729961E-01  1.4533403375980E+00
130  1.2900000000000E+00 -2.2800863924107E-01  1.5155850186050E+00
131  1.3000000000000E+00 -2.8121645588342E-01  1.5709739658386E+00
132  1.3100000000000E+00 -3.3042780040020E-01  1.6189543164860E+00
133  1.3200000000000E+00 -3.7535464599768E-01  1.6590464898787E+00
134  1.3300000000000E+00 -4.1575007989951E-01  1.6908494799483E+00
135  1.3400000000000E+00 -4.5141074558630E-01  1.7140453419860E+00
136  1.3500000000000E+00 -4.8217883925499E-01  1.7284028286223E+00
137  1.3600000000000E+00 -5.0794363163635E-01  1.7337801207801E+00
138  1.3700000000000E+00 -5.2864250473746E-01  1.7301266343981E+00
139  1.3800000000000E+00 -5.4426148861945E-01  1.7174838752317E+00
140  1.3900000000000E+00 -5.5483528805514E-01  1.6959853230610E+00
141  1.4000000000000E+00 -5.6044680566147E-01  1.6658553584291E+00
142  1.4100000000000E+00 -5.6122615558461E-01  1.6274072212758E+00
143  1.4200000000000E+00 -5.5734918387578E-01  1.5810400327125E+00
144  1.4300000000000E+00 -5.4903550923072E-01  1.5272349064874E+00
145  1.4400000000000E+00 -5.3654609731984E-01  1.4665501758669E+00
146  1.4500000000000E+00 -5.2018040460955E-01  1.3996158046368E+00
147  1.4600000000000E+00 -5.0027310758768E-01  1.3271270130443E+00
148  1.4700000000000E+00 -4.7719046193177E-01  1.2498372037544E+00
149  1.4800000000000E+00 -4.5132632290386E-01  1.1685502477594E+00
150  1.4900000000000E+00 -4.2309786851507E-01  1.0841122096467E+00
151  1.5000000000000E+00 -3.9294107415188E-01  9.9740260509346E-01
152  1.5100000000000E+00 -3.6130597801305E-01  9.0932526586214E-01
153  1.5200000000000E+00 -3.2865179514087E-01  8.2079892231144E-01
154  1.5300000000000E+00 -2.9544192324078E-01  7.3274758597336E-01
155  1.5400000000000E+00 -2.6213889816149E-01  6.4609084233676E-01
156  1.5500000000000E+00 -2.2919934742421E-01  5.6173414613994E-01
157  1.5600000000000E+00 -1.9706899765476E-01  4.8055922395145E-01
158  1.5700000000000E+00 -1.6617778637501E-01  4.0341469027510E-01
159  1.5800000000000E+00 -1.3693512482718E-01  3.3110692754376E-01
160  1.5900000000000E+00 -1.0972538591431E-01  2.6439148470423E-01
161  1.6000000000000E+00 -8.4903615843078E-02  2.0396479809466E-01
162  1.6100000000000E+00 -6.2791706830446E-02  1.5045677181265E-01
163  1.6200000000000E+00 -4.3689880932340E-02  1.0446025517357E-01
164  1.6300000000000E+00 -2.7785252813881E-02  6.6315094749049E-02
165  1.6400000000000E+00 -1.5258376897946E-02  3.6363868975424E-02
166  1.6500000000000E+00 -6.5663272921658E-03  1.5625922716611E-02
167  1.6600000000000E+00 -1.7497077903373E-03  4.1503169516831E-03
168  1.6700000000000E+00  1.4019799827301E-04 -3.4477867907129E-04
169  1.6800000000000E+00  3.2222619117017E-04 -7.7102455157617E-04
170  1.6900000000000E+00 -3.2419125709275E-05  7.7504328681217E-05
171  1.7000000000000E+00 -1.0991332038290E-04  2.6252795209263E-04
172  1.7100000000000E+00  4.3451941712146E-06 -1.0412758962427E-05
173  1.7200000000000E+00  2.0555311322683E-05 -4.9237633181010E-05
174  1.7300000000000E+00 -1.0719203060369E-09  6.4959609883046E-09
175  1.7400000000000E+00 -9.2006479017411E-09  5.5756990048827E-08
176  1.7500000000000E+00 -1.5138127326319E-10  9.1738801843697E-10
177  1.7600000000000E+00  0.0000000000000E+00  0.0000000000000E+00
178  1.7700000000000E+00  0.0000000000000E+00  0.0000000000000E+00
179  1.7800000000000E+00  0.0000000000000E+00  0.0000000000000E+00
180  1.7900000000000E+00  0.0000000000000E+00  0.0000000000000E+00
181  1.8000000000000E+00  0.0000000000000E+00  0.0000000000000E+00
182  1.8100000000000E+00  0.0000000000000E+00  0.0000000000000E+00
183  1.8200000000000E+00  0.0000000000000E+00  0.0000000000000E+00
184  1.8300000000000E+00  0.0000000000000E+00  0.0000000000000E+00
185  1.8400000000000E+00  0.0000000000000E+00  0.0000000000000E+00
186  1.8500000000000E+00  0.0000000000000E+00  0.0000000000000E+00
187  1.8600000000000E+00  0.0000000000000E+00  0.0000000000000E+00
188  1.8700000000000E+00  0.0000000000000E+00  0.0000000000000E+00
189  1.8800000000000E+00  0.0000000000000E+00  0.0000000000000E+00
190  1.8900000000000E+00  0.0000000000000E+00  0.0000000000000E+00
191  1.9000000000000E+00  0.0000000000000E+00  0.0000000000000E+00
192  1.9100000000000E+00  0.0000000000000E+00  0.0000000000000E+00
193  1.9200000000000E+00  0.0000000000000E+00  0.0000000000000E+00
194  1.9300000000000E+00  0.0000000000000E+00  0.0000000000000E+00
195  1.9400000000000E+00  0.0000000000000E+00  0.0000000000000E+00
196  1.9500000000000E+00  0.0000000000000E+00  0.0000000000000E+00
197  1.9600000000000E+00  0.0000000000000E+00  0.0000000000000E+00
198  1.9700000000000E+00  0.0000000000000E+00  0.0000000000000E+00
199  1.9800000000000E+00  0.0000000000000E+00  0.0000000000000E+00
200  1.9900000000000E+00  0.0000000000000E+00  0.0000000000000E+00
201  2.0000000000000E+00  0.0000000000000E+00  0.0000000000000E+00
202  2.0100000000000E+00  0.0000000000000E+00  0.0000000000000E+00
203  2.0200000000000E+00  0.0000000000000E+00  0.0000000000000E+00
204  2.0300000000000E+00  0.0000000000000E+00  0.0000000000000E+00
205  2.0400000000000E+00  0.0000000000000E+00  0.0000000000000E+00
206  2.0500000000000E+00  0.0000000000000E+00  0.0000000000000E+00
207  2.0600000000000E+00  0.0000000000000E+00  0.0000000000000E+00
208  2.0700000000000E+00  0.0000000000000E+00  0.0000000000000E+00
209  2.0800000000000E+00  0.0000000000000E+00  0.0000000000000E+00
210  2.0900000000000E+00  0.0000000000000E+00  0.0000000000000E+00
211  2.1000000000000E+00  0.0000000000000E+00  0.0000000000000E+00
212  2.1100000000000E+00  0.0000000000000E+00  0.0000000000000E+00
213  2.1200000000000E+00  0.0000000000000E+00  0.0000000000000E+00
214  2.1300000000000E+00  0.0000000000000E+00  0.0000000000000E+00
215  2.1400000000000E+00  0.0000000000000E+00  0.0000000000000E+00
216  2.1500000000000E+00  0.0000000000000E+00  0.0000000000000E+00
217  2.1600000000000E+00  0.0000000000000E+00  0.0000000000000E+00
218  2.1700000000000E+00  0.0000000000000E+00  0.0000000000000E+00
219  2.1800000000000E+00  0.0000000000000E+00  0.0000000000000E+00
220  2.1900000000000E+00  0.0000000000000E+00  0.0000000000000E+00
221  2.2000000000000E+00  0.0000000000000E+00  0.0000000000000E+00
222  2.2100000000000E+00  0.0000000000000E+00  0.0000000000000E+00
223  2.2200000000000E+00  0.0000000000000E+00  0.0000000000000E+00
224  2.2300000000000E+00  0.0000000000000E+00  0.0000000000000E+00
225  2.2400000000000E+00  0.0000000000000E+00  0.0000000000000E+00
226  2.2500000000000E+00  0.0000000000000E+00  0.0000000000000E+00
227  2.2600000000000E+00  0.0000000000000E+00  0.0000000000000E+00
228  2.2700000000000E+00  0.0000000000000E+00  0.0000000000000E+00
229  2.2800000000000E+00  0.0000000000000E+00  0.0000000000000E+00
230  2.2900000000000E+00  0.0000000000000E+00  0.0000000000000E+00
231  2.3000000000000E+00  0.0000000000000E+00  0.0000000000000E+00
232  2.3100000000000E+00  0.0000000000000E+00  0.0000000000000E+00
233  2.3200000000000E+00  0.0000000000000E+00  0.0000000000000E+00
234  2.3300000000000E+00  0.0000000000000E+00  0.0000000000000E+00
235  2.3400000000000E+00  0.0000000000000E+00  0.0000000000000E+00
236  2.3500000000000E+00  0.0000000000000E+00  0.0000000000000E+00
237  2.3600000000000E+00  0.0000000000000E+00  0.0000000000000E+00
238  2.3700000000000E+00  0.0000000000000E+00  0.0000000000000E+00
239  2.3800000000000E+00  0.0000000000000E+00  0.0000000000000E+00
240  2.3900000000000E+00  0.0000000000000E+00  0.0000000000000E+00
241  2.4000000000000E+00  0.0000000000000E+00  0.0000000000000E+00
242  2.4100000000000E+00  0.0000000000000E+00  0.0000000000000E+00
243  2.4200000000000E+00  0.0000000000000E+00  0.0000000000000E+00
244  2.4300000000000E+00  0.0000000000000E+00  0.0000000000000E+00
245  2.4400000000000E+00  0.0000000000000E+00  0.0000000000000E+00
246  2.4500000000000E+00  0.0000000000000E+00  0.0000000000000E+00
247  2.4600000000000E+00  0.0000000000000E+00  0.0000000000000E+00
248  2.4700000000000E+00  0.0000000000000E+00  0.0000000000000E+00
249  2.4800000000000E+00  0.0000000000000E+00  0.0000000000000E+00
250  2.4900000000000E+00  0.0000000000000E+00  0.0000000000000E+00
251  2.5000000000000E+00  0.0000000000000E+00  0.0000000000000E+00
252  2.5100000000000E+00  0.0000000000000E+00  0.0000000000000E+00
253  2.5200000000000E+00  0.0000000000000E+00  0.0000000000000E+00
254  2.5300000000000E+00  0.0000000000000E+00  0.0000000000000E+00
255  2.5400000000000E+00  0.0000000000000E+00  0.0000000000000E+00
256  2.5500000000000E+00  0.0000000000000E+00  0.0000000000000E+00
257  2.5600000000000E+00  0.0000000000000E+00  0.0000000000000E+00
258  2.5700000000000E+00  0.0000000000000E+00  0.0000000000000E+00
259  2.5800000000000E+00  0.0000000000000E+00  0.0000000000000E+00
260  2.5900000000000E+00  0.0000000000000E+00  0.0000000000000E+00
261  2.6000000000000E+00  0.0000000000000E+00  0.0000000000000E+00
262  2.6100000000000E+00  0.0000000000000E+00  0.0000000000000E+00
263  2.6200000000000E+00  0.0000000000000E+00  0.0000000000000E+00
264  2.6300000000000E+00  0.0000000000000E+00  0.0000000000000E+00
265  2.6400000000000E+00  0.0000000000000E+00  0.0000000000000E+00
266  2.6500000000000E+00  0.0000000000000E+00  0.0000000000000E+00
267  2.6600000000000E+00  0.0000000000000E+00  0.0000000000000E+00
268  2.6700000000000E+00  0.0000000000000E+00  0.0000000000000E+00
269  2.6800000000000E+00  0.0000000000000E+00  0.0000000000000E+00
270  2.6900000000000E+00  0.0000000000000E+00  0.0000000000000E+00
271  2.7000000000000E+00  0.0000000000000E+00  0.0000000000000E+00
272  2.7100000000000E+00  0.0000000000000E+00  0.0000000000000E+00
273  2.7200000000000E+00  0.0000000000000E+00  0.0000000000000E+00
274  2.7300000000000E+00  0.0000000000000E+00  0.0000000000000E+00
275  2.7400000000000E+00  0.0000000000000E+00  0.0000000000000E+00
276  2.7500000000000E+00  0.0000000000000E+00  0.0000000000000E+00
277  2.7600000000000E+00  0.0000000000000E+00  0.0000000000000E+00
278  2.7700000000000E+00  0.0000000000000E+00  0.0000000000000E+00
279  2.7800000000000E+00  0.0000000000000E+00  0.0000000000000E+00
280  2.7900000000000E+00  0.0000000000000E+00  0.0000000000000E+00
281  2.8000000000000E+00  0.0000000000000E+00  0.0000000000000E+00
282  2.8100000000000E+00  0.0000000000000E+00  0.0000000000000E+00
283  2.8200000000000E+00  0.0000000000000E+00  0.0000000000000E+00
284  2.8300000000000E+00  0.0000000000000E+00  0.0000000000000E+00
285  2.8400000000000E+00  0.0000000000000E+00  0.0000000000000E+00
286  2.8500000000000E+00  0.0000000000000E+00  0.0000000000000E+00
287  2.8600000000000E+00  0.0000000000000E+00  0.0000000000000E+00
288  2.8700000000000E+00  0.0000000000000E+00  0.0000000000000E+00
289  2.8800000000000E+00  0.0000000000000E+00  0.0000000000000E+00
290  2.8900000000000E+00  0.0000000000000E+00  0.0000000000000E+00
291  2.9000000000000E+00  0.0000000000000E+00  0.0000000000000E+00
292  2.9100000000000E+00  0.0000000000000E+00  0.0000000000000E+00
293  2.9200000000000E+00  0.0000000000000E+00  0.0000000000000E+00
294  2.9300000000000E+00  0.0000000000000E+00  0.0000000000000E+00
295  2.9400000000000E+00  0.0000000000000E+00  0.0000000000000E+00
296  2.9500000000000E+00  0.0000000000000E+00  0.0000000000000E+00
297  2.9600000000000E+00  0.0000000000000E+00  0.0000000000000E+00
298  2.9700000000000E+00  0.0000000000000E+00  0.0000000000000E+00
299  2.9800000000000E+00  0.0000000000000E+00  0.0000000000000E+00
300  2.9900000000000E+00  0.0000000000000E+00  0.0000000000000E+00
301  3.0000000000000E+00  0.0000000000000E+00  0.0000000000000E+00
302  3.0100000000000E+00  0.0000000000000E+00  0.0000000000000E+00
303  3.0200000000000E+00  0.0000000000000E+00  0.0000000000000E+00
304  3.0300000000000E+00  0.0000000000000E+00  0.0000000000000E+00
305  3.0400000000000E+00  0.0000000000000E+00  0.0000000000000E+00
306  3.0500000000000E+00  0.0000000000000E+00  0.0000000000000E+00
307  3.0600000000000E+00  0.0000000000000E+00  0.0000000000000E+00
308  3.0700000000000E+00  0.0000000000000E+00  0.0000000000000E+00
309  3.0800000000000E+00  0.0000000000000E+00  0.0000000000000E+00
310  3.0900000000000E+00  0.0000000000000E+00  0.0000000000000E+00
311  3.1000000000000E+00  0.0000000000000E+00  0.0000000000000E+00
312  3.1100000000000E+00  0.0000000000000E+00  0.0000000000000E+00
313  3.1200000000000E+00  0.0000000000000E+00  0.0000000000000E+00
314  3.1300000000000E+00  0.0000000000000E+00  0.0000000000000E+00
315  3.1400000000000E+00  0.0000000000000E+00  0.0000000000000E+00
316  3.1500000000000E+00  0.0000000000000E+00  0.0000000000000E+00
317  3.1600000000000E+00  0.0000000000000E+00  0.0000000000000E+00
318  3.1700000000000E+00  0.0000000000000E+00  0.0000000000000E+00
319  3.1800000000000E+00  0.0000000000000E+00  0.0000000000000E+00
320  3.1900000000000E+00  0.0000000000000E+00  0.0000000000000E+00
321  3.2000000000000E+00  0.0000000000000E+00  0.0000000000000E+00
322  3.2100000000000E+00  0.0000000000000E+00  0.0000000000000E+00
323  3.2200000000000E+00  0.0000000000000E+00  0.0000000000000E+00
324  3.2300000000000E+00  0.0000000000000E+00  0.0000000000000E+00
325  3.2400000000000E+00  0.0000000000000E+00  0.0000000000000E+00
326  3.2500000000000E+00  0.0000000000000E+00  0.0000000000000E+00
327  3.2600000000000E+00  0.0000000000000E+00  0.0000000000000E+00
328  3.2700000000000E+00  0.0000000000000E+00  0.0000000000000E+00
329  3.2800000000000E+00  0.0000000000000E+00  0.0000000000000E+00
330  3.2900000000000E+00  0.0000000000000E+00  0.0000000000000E+00
331  3.3000000000000E+00  0.0000000000000E+00  0.0000000000000E+00
332  3.3100000000000E+00  0.0000000000000E+00  0.0000000000000E+00
333  3.3200000000000E+00  0.0000000000000E+00  0.0000000000000E+00
334  3.3300000000000E+00  0.0000000000000E+00  0.0000000000000E+00
335  3.3400000000000E+00  0.0000000000000E+00  0.0000000000000E+00
336  3.3500000000000E+00  0.0000000000000E+00  0.0000000000000E+00
337  3.3600000000000E+00  0.0000000000000E+00  0.0000000000000E+00
338  3.3700000000000E+00  0.0000000000000E+00  0.0000000000000E+00
339  3.3800000000000E+00  0.0000000000000E+00  0.0000000000000E+00
340  3.3900000000000E+00  0.0000000000000E+00  0.0000000000000E+00
341  3.4000000000000E+00  0.0000000000000E+00  0.0000000000000E+00
342  3.4100000000000E+00  0.0000000000000E+00  0.0000000000000E+00
343  3.4200000000000E+00  0.0000000000000E+00  0.0000000000000E+00
344  3.4300000000000E+00  0.0000000000000E+00  0.0000000000000E+00
345  3.4400000000000E+00  0.0000000000000E+00  0.0000000000000E+00
346  3.4500000000000E+00  0.0000000000000E+00  0.0000000000000E+00
347  3.4600000000000E+00  0.0000000000000E+00  0.0000000000000E+00
348  3.4700000000000E+00  0.0000000000000E+00  0.0000000000000E+00
349  3.4800000000000E+00  0.0000000000000E+00  0.0000000000000E+00
350  3.4900000000000E+00  0.0000000000000E+00  0.0000000000000E+00
351  3.5000000000000E+00  0.0000000000000E+00  0.0000000000000E+00
352  3.5100000000000E+00  0.0000000000000E+00  0.0000000000000E+00
353  3.5200000000000E+00  0.0000000000000E+00  0.0000000000000E+00
354  3.5300000000000E+00  0.0000000000000E+00  0.0000000000000E+00
355  3.5400000000000E+00  0.0000000000000E+00  0.0000000000000E+00
356  3.5500000000000E+00  0.0000000000000E+00  0.0000000000000E+00
357  3.5600000000000E+00  0.0000000000000E+00  0.0000000000000E+00
358  3.5700000000000E+00  0.0000000000000E+00  0.0000000000000E+00
359  3.5800000000000E+00  0.0000000000000E+00  0.0000000000000E+00
360  3.5900000000000E+00  0.0000000000000E+00  0.0000000000000E+00
361  3.6000000000000E+00  0.0000000000000E+00  0.0000000000000E+00
362  3.6100000000000E+00  0.0000000000000E+00  0.0000000000000E+00
363  3.6200000000000E+00  0.0000000000000E+00  0.0000000000000E+00
364  3.6300000000000E+00  0.0000000000000E+00  0.0000000000000E+00
365  3.6400000000000E+00  0.0000000000000E+00  0.0000000000000E+00
366  3.6500000000000E+00  0.0000000000000E+00  0.0000000000000E+00
367  3.6600000000000E+00  0.0000000000000E+00  0.0000000000000E+00
368  3.6700000000000E+00  0.0000000000000E+00  0.0000000000000E+00
369  3.6800000000000E+00  0.0000000000000E+00  0.0000000000000E+00
370  3.6900000000000E+00  0.0000000000000E+00  0.0000000000000E+00
371  3.7000000000000E+00  0.0000000000000E+00  0.0000000000000E+00
372  3.7100000000000E+00  0.0000000000000E+00  0.0000000000000E+00
373  3.7200000000000E+00  0.0000000000000E+00  0.0000000000000E+00
374  3.7300000000000E+00  0.0000000000000E+00  0.0000000000000E+00
375  3.7400000000000E+00  0.0000000000000E+00  0.0000000000000E+00
376  3.7500000000000E+00  0.0000000000000E+00  0.0000000000000E+00
377  3.7600000000000E+00  0.0000000000000E+00  0.0000000000000E+00
378  3.7700000000000E+00  0.0000000000000E+00  0.0000000000000E+00
379  3.7800000000000E+00  0.0000000000000E+00  0.0000000000000E+00
380  3.7900000000000E+00  0.0000000000000E+00  0.0000000000000E+00
381  3.8000000000000E+00  0.0000000000000E+00  0.0000000000000E+00
382  3.8100000000000E+00  0.0000000000000E+00  0.0000000000000E+00
383  3.8200000000000E+00  0.0000000000000E+00  0.0000000000000E+00
384  3.8300000000000E+00  0.0000000000000E+00  0.0000000000000E+00
385  3.8400000000000E+00  0.0000000000000E+00  0.0000000000000E+00
386  3.8500000000000E+00  0.0000000000000E+00  0.0000000000000E+00
387  3.8600000000000E+00  0.0000000000000E+00  0.0000000000000E+00
388  3.8700000000000E+00  0.0000000000000E+00  0.0000000000000E+00
389  3.8800000000000E+00  0.0000000000000E+00  0.0000000000000E+00
390  3.8900000000000E+00  0.0000000000000E+00  0.0000000000000E+00
391  3.9000000000000E+00  0.0000000000000E+00  0.0000000000000E+00
392  3.9100000000000E+00  0.0000000000000E+00  0.0000000000000E+00
393  3.9200000000000E+00  0.0000000000000E+00  0.0000000000000E+00
394  3.9300000000000E+00  0.0000000000000E+00  0.0000000000000E+00
395  3.9400000000000E+00  0.0000000000000E+00  0.0000000000000E+00
396  3.9500000000000E+00  0.0000000000000E+00  0.0000000000000E+00
397  3.9600000000000E+00  0.0000000000000E+00  0.0000000000000E+00
398  3.9700000000000E+00  0.0000000000000E+00  0.0000000000000E+00
399  3.9800000000000E+00  0.0000000000000E+00  0.0000000000000E+00
400  3.9900000000000E+00  0.0000000000000E+00  0.0000000000000E+00
401  4.0000000000000E+00  0.0000000000000E+00  0.0000000000000E+00
402  4.0100000000000E+00  0.0000000000000E+00  0.0000000000000E+00
403  4.0200000000000E+00  0.0000000000000E+00  0.0000000000000E+00
404  4.0300000000000E+00  0.0000000000000E+00  0.0000000000000E+00
405  4.0400000000000E+00  0.0000000000000E+00  0.0000000000000E+00
406  4.0500000000000E+00  0.0000000000000E+00  0.0000000000000E+00
407  4.0600000000000E+00  0.0000000000000E+00  0.0000000000000E+00
408  4.0700000000000E+00  0.0000000000000E+00  0.0000000000000E+00
409  4.0800000000000E+00  0.0000000000000E+00  0.0000000000000E+00
410  4.0900000000000E+00  0.0000000000000E+00  0.0000000000000E+00
411  4.1000000000000E+00  0.0000000000000E+00  0.0000000000000E+00
412  4.1100000000000E+00  0.0000000000000E+00  0.0000000000000E+00
413  4.1200000000000E+00  0.0000000000000E+00  0.0000000000000E+00
414  4.1300000000000E+00  0.0000000000000E+00  0.0000000000000E+00
415  4.1400000000000E+00  0.0000000000000E+00  0.0000000000000E+00
416  4.1500000000000E+00  0.0000000000000E+00  0.0000000000000E+00
417  4.1600000000000E+00  0.0000000000000E+00  0.0000000000000E+00
418  4.1700000000000E+00  0.0000000000000E+00  0.0000000000000E+00
419  4.1800000000000E+00  0.0000000000000E+00  0.0000000000000E+00
420  4.1900000000000E+00  0.0000000000000E+00  0.0000000000000E+00
421  4.2000000000000E+00  0.0000000000000E+00  0.0000000000000E+00
422  4.2100000000000E+00  0.0000000000000E+00  0.0000000000000E+00
423  4.2200000000000E+00  0.0000000000000E+00  0.0000000000000E+00
424  4.2300000000000E+00  0.0000000000000E+00  0.0000000000000E+00
425  4.2400000000000E+00  0.0000000000000E+00  0.0000000000000E+00
426  4.2500000000000E+00  0.0000000000000E+00  0.0000000000000E+00
427  4.2600000000000E+00  0.0000000000000E+00  0.0000000000000E+00
428  4.2700000000000E+00  0.0000000000000E+00  0.0000000000000E+00
429  4.2800000000000E+00  0.0000000000000E+00  0.0000000000000E+00
430  4.2900000000000E+00  0.0000000000000E+00  0.0000000000000E+00
431  4.3000000000000E+00  0.0000000000000E+00  0.0000000000000E+00
432  4.3100000000000E+00  0.0000000000000E+00  0.0000000000000E+00
433  4.3200000000000E+00  0.0000000000000E+00  0.0000000000000E+00
434  4.3300000000000E+00  0.0000000000000E+00  0.0000000000000E+00
435  4.3400000000000E+00  0.0000000000000E+00  0.0000000000000E+00
436  4.3500000000000E+00  0.0000000000000E+00  0.0000000000000E+00
437  4.3600000000000E+00  0.0000000000000E+00  0.0000000000000E+00
438  4.3700000000000E+00  0.0000000000000E+00  0.0000000000000E+00
439  4.3800000000000E+00  0.0000000000000E+00  0.0000000000000E+00
440  4.3900000000000E+00  0.0000000000000E+00  0.0000000000000E+00
441  4.4000000000000E+00  0.0000000000000E+00  0.0000000000000E+00
442  4.4100000000000E+00  0.0000000000000E+00  0.0000000000000E+00
443  4.4200000000000E+00  0.0000000000000E+00  0.0000000000000E+00