Ge    ONCVPSP-3.2.3.1  r_core=   1.91022   1.82122   1.91022
32.0000     14.0000      170504    zatom,zion,pspd
8      11   2     4   600     0    pspcod,pspxc,lmax,lloc,mmax,r2well
5.99000000  5.00000000  0.00000000    rchrg fchrg qchrg
2     2     2     0     0    nproj
1     1           extension_switch
0                         6.3627631831568E+00  5.8870438410215E-01
1  0.0000000000000E+00 -4.5299319850756E-12 -3.7244651807100E-12
2  1.0000000000000E-02  3.5494408908309E-02 -2.2837008490011E-02
3  2.0000000000000E-02  7.0957772912418E-02 -4.5635732736965E-02
4  3.0000000000000E-02  1.0635910079539E-01 -6.8357917884596E-02
5  4.0000000000000E-02  1.4166750850065E-01 -9.0965367957742E-02
6  5.0000000000000E-02  1.7685227217801E-01 -1.1341997557077E-01
7  6.0000000000000E-02  2.1188288059170E-01 -1.3568375195475E-01
8  7.0000000000000E-02  2.4672908668342E-01 -1.5771885740528E-01
9  8.0000000000000E-02  2.8136095808730E-01 -1.7948763224893E-01
10  9.0000000000000E-02  3.1574892639986E-01 -2.0095262842184E-01
11  1.0000000000000E-01  3.4986383501426E-01 -2.2207664174833E-01
12  1.1000000000000E-01  3.8367698533632E-01 -2.4282274500105E-01
13  1.2000000000000E-01  4.1716018120787E-01 -2.6315432181720E-01
14  1.3000000000000E-01  4.5028577137320E-01 -2.8303510153727E-01
15  1.4000000000000E-01  4.8302668983456E-01 -3.0242919502428E-01
16  1.5000000000000E-01  5.1535649395414E-01 -3.2130113151238E-01
17  1.6000000000000E-01  5.4724940017212E-01 -3.3961589652359E-01
18  1.7000000000000E-01  5.7868031722316E-01 -3.5733897088148E-01
19  1.8000000000000E-01  6.0962487674742E-01 -3.7443637083947E-01
20  1.9000000000000E-01  6.4005946120617E-01 -3.9087468933064E-01
21  2.0000000000000E-01  6.6996122902656E-01 -4.0662113833400E-01
22  2.1000000000000E-01  6.9930813691568E-01 -4.2164359234094E-01
23  2.2000000000000E-01  7.2807895929870E-01 -4.3591063289317E-01
24  2.3000000000000E-01  7.5625330485239E-01 -4.4939159415183E-01
25  2.4000000000000E-01  7.8381163012053E-01 -4.6205660944530E-01
26  2.5000000000000E-01  8.1073525021418E-01 -4.7387665873115E-01
27  2.6000000000000E-01  8.3700634661559E-01 -4.8482361689598E-01
28  2.7000000000000E-01  8.6260797212037E-01 -4.9487030280505E-01
29  2.8000000000000E-01  8.8752405296872E-01 -5.0399052900256E-01
30  2.9000000000000E-01  9.1173938823155E-01 -5.1215915195184E-01
31  3.0000000000000E-01  9.3523964653299E-01 -5.1935212269472E-01
32  3.1000000000000E-01  9.5801136020521E-01 -5.2554653779862E-01
33  3.2000000000000E-01  9.8004191698609E-01 -5.3072069045068E-01
34  3.3000000000000E-01  1.0013195493836E+00 -5.3485412154890E-01
35  3.4000000000000E-01  1.0218333218445E+00 -5.3792767063237E-01
36  3.5000000000000E-01  1.0415731158754E+00 -5.3992352648422E-01
37  3.6000000000000E-01  1.0605296132792E+00 -5.4082527723499E-01
38  3.7000000000000E-01  1.0786942776758E+00 -5.4061795978705E-01
39  3.8000000000000E-01  1.0960593344897E+00 -5.3928810837616E-01
40  3.9000000000000E-01  1.1126177495934E+00 -5.3682380208130E-01
41  4.0000000000000E-01  1.1283632068029E+00 -5.3321471109078E-01
42  4.1000000000000E-01  1.1432900844299E+00 -5.2845214152965E-01
43  4.2000000000000E-01  1.1573934310972E+00 -5.2252907865219E-01
44  4.3000000000000E-01  1.1706689410305E+00 -5.1544022820200E-01
45  4.4000000000000E-01  1.1831129290413E+00 -5.0718205574302E-01
46  4.5000000000000E-01  1.1947223054166E+00 -4.9775282376531E-01
47  4.6000000000000E-01  1.2054945509300E+00 -4.8715262637229E-01
48  4.7000000000000E-01  1.2154276921917E+00 -4.7538342135857E-01
49  4.8000000000000E-01  1.2245202775450E+00 -4.6244905949173E-01
50  4.9000000000000E-01  1.2327713537205E+00 -4.4835531081652E-01
51  5.0000000000000E-01  1.2401804434470E+00 -4.3310988780527E-01
52  5.1000000000000E-01  1.2467475242160E+00 -4.1672246518547E-01
53  5.2000000000000E-01  1.2524730083853E+00 -3.9920469628236E-01
54  5.3000000000000E-01  1.2573577248010E+00 -3.8057022572320E-01
55  5.4000000000000E-01  1.2614029021018E+00 -3.6083469835835E-01
56  5.5000000000000E-01  1.2646101538624E+00 -3.4001576426454E-01
57  5.6000000000000E-01  1.2669814657172E+00 -3.1813307970546E-01
58  5.7000000000000E-01  1.2685191845903E+00 -2.9520830393637E-01
59  5.8000000000000E-01  1.2692260101456E+00 -2.7126509175036E-01
60  5.9000000000000E-01  1.2691049885513E+00 -2.4632908167652E-01
61  6.0000000000000E-01  1.2681595086387E+00 -2.2042787975226E-01
62  6.1000000000000E-01  1.2663933005147E+00 -1.9359103880517E-01
63  6.2000000000000E-01  1.2638104366723E+00 -1.6585003319294E-01
64  6.3000000000000E-01  1.2604153356193E+00 -1.3723822896335E-01
65  6.4000000000000E-01  1.2562127680310E+00 -1.0779084940998E-01
66  6.5000000000000E-01  1.2512078654092E+00 -7.7544936013504E-02
67  6.6000000000000E-01  1.2454061312099E+00 -4.6539304771690E-02
68  6.7000000000000E-01  1.2388134543830E+00 -1.4814497936365E-02
69  6.8000000000000E-01  1.2314361252451E+00  1.7587268811700E-02
70  6.9000000000000E-01  1.2232808535881E+00  5.0622163703543E-02
71  7.0000000000000E-01  1.2143547889037E+00  8.4244800679734E-02
72  7.1000000000000E-01  1.2046655425853E+00  1.1840830557096E-01
73  7.2000000000000E-01  1.1942212119513E+00  1.5306438657539E-01
74  7.3000000000000E-01  1.1830304059102E+00  1.8816340893234E-01
75  7.4000000000000E-01  1.1711022720757E+00  2.2365447367946E-01
76  7.5000000000000E-01  1.1584465251180E+00  2.5948550036761E-01
77  7.6000000000000E-01  1.1450734761247E+00  2.9560331359552E-01
78  7.7000000000000E-01  1.1309940627272E+00  3.3195373321449E-01
79  7.8000000000000E-01  1.1162198797366E+00  3.6848166804144E-01
80  7.9000000000000E-01  1.1007632100190E+00  4.0513121290860E-01
81  8.0000000000000E-01  1.0846370553304E+00  4.4184574886634E-01
82  8.1000000000000E-01  1.0678551668199E+00  4.7856804634681E-01
83  8.2000000000000E-01  1.0504320749051E+00  5.1524037108567E-01
84  8.3000000000000E-01  1.0323831182127E+00  5.5180459259083E-01
85  8.4000000000000E-01  1.0137244712785E+00  5.8820229493834E-01
86  8.5000000000000E-01  9.9447317069329E-01  6.2437488966784E-01
87  8.6000000000000E-01  9.7464713938276E-01  6.6026373054276E-01
88  8.7000000000000E-01  9.5426520871186E-01  6.9581022993367E-01
89  8.8000000000000E-01  9.3334713810436E-01  7.3095597657687E-01
90  8.9000000000000E-01  9.1191363187593E-01  7.6564285445518E-01
91  9.0000000000000E-01  8.8998635298541E-01  7.9981316254238E-01
92  9.1000000000000E-01  8.6758793341816E-01  8.3340973514858E-01
93  9.2000000000000E-01  8.4474198092692E-01  8.6637606259992E-01
94  9.3000000000000E-01  8.2147308186869E-01  8.9865641198268E-01
95  9.4000000000000E-01  7.9780679989137E-01  9.3019594767897E-01
96  9.5000000000000E-01  7.7376967024131E-01  9.6094085141905E-01
97  9.6000000000000E-01  7.4938918948140E-01  9.9083844157372E-01
98  9.7000000000000E-01  7.2469380043069E-01  1.0198372914089E+00
99  9.8000000000000E-01  6.9971287215849E-01  1.0478873460236E+00
100  9.9000000000000E-01  6.7447667489023E-01  1.0749400376935E+00
101  1.0000000000000E+00  6.4901634970819E-01  1.1009483993405E+00
102  1.0100000000000E+00  6.2336387295633E-01  1.1258671758518E+00
103  1.0200000000000E+00  5.9755201528750E-01  1.1496529329717E+00
104  1.0300000000000E+00  5.7161429532027E-01  1.1722641634923E+00
105  1.0400000000000E+00  5.4558492790290E-01  1.1936613904700E+00
106  1.0500000000000E+00  5.1949876701288E-01  1.2138072671988E+00
107  1.0600000000000E+00  4.9339124335360E-01  1.2326666736740E+00
108  1.0700000000000E+00  4.6729829673871E-01  1.2502068092828E+00
109  1.0800000000000E+00  4.4125630339089E-01  1.2663972814648E+00
110  1.0900000000000E+00  4.1530199831249E-01  1.2812101900850E+00
111  1.1000000000000E+00  3.8947239291829E-01  1.2946202072729E+00
112  1.1100000000000E+00  3.6380468815429E-01  1.3066046524820E+00
113  1.1200000000000E+00  3.3833618335423E-01  1.3171435625317E+00
114  1.1300000000000E+00  3.1310418112298E-01  1.3262197563988E+00
115  1.1400000000000E+00  2.8814588856128E-01  1.3338188945356E+00
116  1.1500000000000E+00  2.6349831518033E-01  1.3399295324934E+00
117  1.1600000000000E+00  2.3919816787500E-01  1.3445431686431E+00
118  1.1700000000000E+00  2.1528174336176E-01  1.3476542857881E+00
119  1.1800000000000E+00  1.9178481850585E-01  1.3492603864787E+00
120  1.1900000000000E+00  1.6874253898729E-01  1.3493620218399E+00
121  1.2000000000000E+00  1.4618930677556E-01  1.3479628137391E+00
122  1.2100000000000E+00  1.2415866690666E-01  1.3450694701258E+00
123  1.2200000000000E+00  1.0268319407125E-01  1.3406917933939E+00
124  1.2300000000000E+00  8.1794379532801E-02  1.3348426816145E+00
125  1.2400000000000E+00  6.1522518916818E-02  1.3275381225132E+00
126  1.2500000000000E+00  4.1896601415385E-02  1.3187971800692E+00
127  1.2600000000000E+00  2.2944200958455E-02  1.3086419736284E+00
128  1.2700000000000E+00  4.6913699127127E-03  1.2970976494323E+00
129  1.2800000000000E+00 -1.2837464135067E-02  1.2841923444894E+00
130  1.2900000000000E+00 -2.9619597951582E-02  1.2699571427124E+00
131  1.3000000000000E+00 -4.5634148030461E-02  1.2544260232718E+00
132  1.3100000000000E+00 -6.0862141226327E-02  1.2376358011329E+00
133  1.3200000000000E+00 -7.5286600105179E-02  1.2196260597447E+00
134  1.3300000000000E+00 -8.8892622487669E-02  1.2004390758772E+00
135  1.3400000000000E+00 -1.0166745469387E-01  1.1801197366273E+00
136  1.3500000000000E+00 -1.1360055797393E-01  1.1587154485980E+00
137  1.3600000000000E+00 -1.2468366768133E-01  1.1362760393153E+00
138  1.3700000000000E+00 -1.3491084474868E-01  1.1128536509376E+00
139  1.3800000000000E+00 -1.4427851902148E-01  1.0885026263246E+00
140  1.3900000000000E+00 -1.5278552411464E-01  1.0632793875873E+00
141  1.4000000000000E+00 -1.6043312339762E-01  1.0372423072107E+00
142  1.4100000000000E+00 -1.6722502680301E-01  1.0104515718932E+00
143  1.4200000000000E+00 -1.7316739821836E-01  9.8296903927155E-01
144  1.4300000000000E+00 -1.7826885313457E-01  9.5485808766331E-01
145  1.4400000000000E+00 -1.8254044645793E-01  9.2618345906938E-01
146  1.4500000000000E+00 -1.8599565023998E-01  8.9701109560377E-01
147  1.4600000000000E+00 -1.8865032125150E-01  8.6740796960068E-01
148  1.4700000000000E+00 -1.9052265836373E-01  8.3744190765738E-01
149  1.4800000000000E+00 -1.9163314960952E-01  8.0718140883974E-01
150  1.4900000000000E+00 -1.9200450911746E-01  7.7669545740144E-01
151  1.5000000000000E+00 -1.9166160379262E-01  7.4605333024509E-01
152  1.5100000000000E+00 -1.9063137005107E-01  7.1532439951921E-01
153  1.5200000000000E+00 -1.8894272064203E-01  6.8457793064017E-01
154  1.5300000000000E+00 -1.8662644183342E-01  6.5388287612089E-01
155  1.5400000000000E+00 -1.8371508124440E-01  6.2330766558574E-01
156  1.5500000000000E+00 -1.8024282653185E-01  5.9291999232912E-01
157  1.5600000000000E+00 -1.7624537546503E-01  5.6278659688321E-01
158  1.5700000000000E+00 -1.7175979753911E-01  5.3297304793477E-01
159  1.5800000000000E+00 -1.6682438786696E-01  5.0354352112239E-01
160  1.5900000000000E+00 -1.6147851350969E-01  4.7456057606004E-01
161  1.6000000000000E+00 -1.5576245308124E-01  4.4608493214577E-01
162  1.6100000000000E+00 -1.4971722990436E-01  4.1817524354122E-01
163  1.6200000000000E+00 -1.4338443954871E-01  3.9088787387573E-01
164  1.6300000000000E+00 -1.3680607218071E-01  3.6427667110916E-01
165  1.6400000000000E+00 -1.3002433053704E-01  3.3839274309864E-01
166  1.6500000000000E+00 -1.2308144407790E-01  3.1328423434074E-01
167  1.6600000000000E+00 -1.1601948012268E-01  2.8899610442953E-01
168  1.6700000000000E+00 -1.0888015261521E-01  2.6556990872599E-01
169  1.6800000000000E+00 -1.0170462932325E-01  2.4304358177791E-01
170  1.6900000000000E+00 -9.4533338174600E-02  2.2145122399783E-01
171  1.7000000000000E+00 -8.7405772917811E-02  2.0082288838962E-01
172  1.7100000000000E+00 -8.0360302345695E-02  1.8118438887285E-01
173  1.7200000000000E+00 -7.3433972688306E-02  1.6255706478036E-01
174  1.7300000000000E+00 -6.6662330597529E-02  1.4495765528076E-01
175  1.7400000000000E+00 -6.0079245693163E-02  1.2839816616501E-01
176  1.7500000000000E+00 -5.3716660717237E-02  1.1288528800300E-01
177  1.7600000000000E+00 -4.7604445681267E-02  9.8420401374994E-02
178  1.7700000000000E+00 -4.1770438094908E-02  8.5000701686620E-02
179  1.7800000000000E+00 -3.6240429983210E-02  7.2619934601035E-02
180  1.7900000000000E+00 -3.1038206487122E-02  6.1269267530312E-02
181  1.8000000000000E+00 -2.6185620175283E-02  5.0938366680878E-02
182  1.8100000000000E+00 -2.1702416367955E-02  4.1614919700972E-02
183  1.8200000000000E+00 -1.7606106486326E-02  3.3284370789051E-02
184  1.8300000000000E+00 -1.3911923743255E-02  2.5930172896497E-02
185  1.8400000000000E+00 -1.0632726660342E-02  1.9533657209183E-02
186  1.8500000000000E+00 -7.7804985302088E-03  1.4076323370464E-02
187  1.8600000000000E+00 -5.3599125196237E-03  9.5305148890415E-03
188  1.8700000000000E+00 -3.3702329480562E-03  5.8629299505616E-03
189  1.8800000000000E+00 -1.8251229988543E-03  3.0612824903044E-03
190  1.8900000000000E+00 -7.4513112539065E-04  1.1220898534883E-03
191  1.9000000000000E+00 -1.1398671183488E-04 -5.0921841871063E-06
192  1.9100000000000E+00  1.4793286548197E-04 -4.4412339543946E-04
193  1.9200000000000E+00  1.4327605096837E-04 -3.5743503006417E-04
194  1.9300000000000E+00  3.3863953457634E-05 -8.0470088975229E-05
195  1.9400000000000E+00 -2.9912843978593E-05  7.0112913982717E-05
196  1.9500000000000E+00 -2.2171485835926E-05  5.1225580768627E-05
197  1.9600000000000E+00  3.6674164834321E-06 -8.8820482445311E-06
198  1.9700000000000E+00  6.3313970738677E-06 -1.5219213426060E-05
199  1.9800000000000E+00 -1.2577549804837E-08  3.7428418165608E-08
200  1.9900000000000E+00 -4.2205130912545E-07  1.2559451666186E-06
201  2.0000000000000E+00 -1.8291335497717E-07  5.4431567709052E-07
202  2.0100000000000E+00  0.0000000000000E+00  0.0000000000000E+00
203  2.0200000000000E+00  0.0000000000000E+00  0.0000000000000E+00
204  2.0300000000000E+00  0.0000000000000E+00  0.0000000000000E+00
205  2.0400000000000E+00  0.0000000000000E+00  0.0000000000000E+00
206  2.0500000000000E+00  0.0000000000000E+00  0.0000000000000E+00
207  2.0600000000000E+00  0.0000000000000E+00  0.0000000000000E+00
208  2.0700000000000E+00  0.0000000000000E+00  0.0000000000000E+00
209  2.0800000000000E+00  0.0000000000000E+00  0.0000000000000E+00
210  2.0900000000000E+00  0.0000000000000E+00  0.0000000000000E+00
211  2.1000000000000E+00  0.0000000000000E+00  0.0000000000000E+00
212  2.1100000000000E+00  0.0000000000000E+00  0.0000000000000E+00
213  2.1200000000000E+00  0.0000000000000E+00  0.0000000000000E+00
214  2.1300000000000E+00  0.0000000000000E+00  0.0000000000000E+00
215  2.1400000000000E+00  0.0000000000000E+00  0.0000000000000E+00
216  2.1500000000000E+00  0.0000000000000E+00  0.0000000000000E+00
217  2.1600000000000E+00  0.0000000000000E+00  0.0000000000000E+00
218  2.1700000000000E+00  0.0000000000000E+00  0.0000000000000E+00
219  2.1800000000000E+00  0.0000000000000E+00  0.0000000000000E+00
220  2.1900000000000E+00  0.0000000000000E+00  0.0000000000000E+00
221  2.2000000000000E+00  0.0000000000000E+00  0.0000000000000E+00
222  2.2100000000000E+00  0.0000000000000E+00  0.0000000000000E+00
223  2.2200000000000E+00  0.0000000000000E+00  0.0000000000000E+00
224  2.2300000000000E+00  0.0000000000000E+00  0.0000000000000E+00
225  2.2400000000000E+00  0.0000000000000E+00  0.0000000000000E+00
226  2.2500000000000E+00  0.0000000000000E+00  0.0000000000000E+00
227  2.2600000000000E+00  0.0000000000000E+00  0.0000000000000E+00
228  2.2700000000000E+00  0.0000000000000E+00  0.0000000000000E+00
229  2.2800000000000E+00  0.0000000000000E+00  0.0000000000000E+00
230  2.2900000000000E+00  0.0000000000000E+00  0.0000000000000E+00
231  2.3000000000000E+00  0.0000000000000E+00  0.0000000000000E+00
232  2.3100000000000E+00  0.0000000000000E+00  0.0000000000000E+00
233  2.3200000000000E+00  0.0000000000000E+00  0.0000000000000E+00
234  2.3300000000000E+00  0.0000000000000E+00  0.0000000000000E+00
235  2.3400000000000E+00  0.0000000000000E+00  0.0000000000000E+00
236  2.3500000000000E+00  0.0000000000000E+00  0.0000000000000E+00
237  2.3600000000000E+00  0.0000000000000E+00  0.0000000000000E+00
238  2.3700000000000E+00  0.0000000000000E+00  0.0000000000000E+00
239  2.3800000000000E+00  0.0000000000000E+00  0.0000000000000E+00
240  2.3900000000000E+00  0.0000000000000E+00  0.0000000000000E+00
241  2.4000000000000E+00  0.0000000000000E+00  0.0000000000000E+00
242  2.4100000000000E+00  0.0000000000000E+00  0.0000000000000E+00
243  2.4200000000000E+00  0.0000000000000E+00  0.0000000000000E+00
244  2.4300000000000E+00  0.0000000000000E+00  0.0000000000000E+00
245  2.4400000000000E+00  0.0000000000000E+00  0.0000000000000E+00
246  2.4500000000000E+00  0.0000000000000E+00  0.0000000000000E+00
247  2.4600000000000E+00  0.0000000000000E+00  0.0000000000000E+00
248  2.4700000000000E+00  0.0000000000000E+00  0.0000000000000E+00
249  2.4800000000000E+00  0.0000000000000E+00  0.0000000000000E+00
250  2.4900000000000E+00  0.0000000000000E+00  0.0000000000000E+00
251  2.5000000000000E+00  0.0000000000000E+00  0.0000000000000E+00
252  2.5100000000000E+00  0.0000000000000E+00  0.0000000000000E+00
253  2.5200000000000E+00  0.0000000000000E+00  0.0000000000000E+00
254  2.5300000000000E+00  0.0000000000000E+00  0.0000000000000E+00
255  2.5400000000000E+00  0.0000000000000E+00  0.0000000000000E+00
256  2.5500000000000E+00  0.0000000000000E+00  0.0000000000000E+00
257  2.5600000000000E+00  0.0000000000000E+00  0.0000000000000E+00
258  2.5700000000000E+00  0.0000000000000E+00  0.0000000000000E+00
259  2.5800000000000E+00  0.0000000000000E+00  0.0000000000000E+00
260  2.5900000000000E+00  0.0000000000000E+00  0.0000000000000E+00
261  2.6000000000000E+00  0.0000000000000E+00  0.0000000000000E+00
262  2.6100000000000E+00  0.0000000000000E+00  0.0000000000000E+00
263  2.6200000000000E+00  0.0000000000000E+00  0.0000000000000E+00
264  2.6300000000000E+00  0.0000000000000E+00  0.0000000000000E+00
265  2.6400000000000E+00  0.0000000000000E+00  0.0000000000000E+00
266  2.6500000000000E+00  0.0000000000000E+00  0.0000000000000E+00
267  2.6600000000000E+00  0.0000000000000E+00  0.0000000000000E+00
268  2.6700000000000E+00  0.0000000000000E+00  0.0000000000000E+00
269  2.6800000000000E+00  0.0000000000000E+00  0.0000000000000E+00
270  2.6900000000000E+00  0.0000000000000E+00  0.0000000000000E+00
271  2.7000000000000E+00  0.0000000000000E+00  0.0000000000000E+00
272  2.7100000000000E+00  0.0000000000000E+00  0.0000000000000E+00
273  2.7200000000000E+00  0.0000000000000E+00  0.0000000000000E+00
274  2.7300000000000E+00  0.0000000000000E+00  0.0000000000000E+00
275  2.7400000000000E+00  0.0000000000000E+00  0.0000000000000E+00
276  2.7500000000000E+00  0.0000000000000E+00  0.0000000000000E+00
277  2.7600000000000E+00  0.0000000000000E+00  0.0000000000000E+00
278  2.7700000000000E+00  0.0000000000000E+00  0.0000000000000E+00
279  2.7800000000000E+00  0.0000000000000E+00  0.0000000000000E+00
280  2.7900000000000E+00  0.0000000000000E+00  0.0000000000000E+00
281  2.8000000000000E+00  0.0000000000000E+00  0.0000000000000E+00
282  2.8100000000000E+00  0.0000000000000E+00  0.0000000000000E+00
283  2.8200000000000E+00  0.0000000000000E+00  0.0000000000000E+00
284  2.8300000000000E+00  0.0000000000000E+00  0.0000000000000E+00
285  2.8400000000000E+00  0.0000000000000E+00  0.0000000000000E+00
286  2.8500000000000E+00  0.0000000000000E+00  0.0000000000000E+00
287  2.8600000000000E+00  0.0000000000000E+00  0.0000000000000E+00
288  2.8700000000000E+00  0.0000000000000E+00  0.0000000000000E+00
289  2.8800000000000E+00  0.0000000000000E+00  0.0000000000000E+00
290  2.8900000000000E+00  0.0000000000000E+00  0.0000000000000E+00
291  2.9000000000000E+00  0.0000000000000E+00  0.0000000000000E+00
292  2.9100000000000E+00  0.0000000000000E+00  0.0000000000000E+00
293  2.9200000000000E+00  0.0000000000000E+00  0.0000000000000E+00
294  2.9300000000000E+00  0.0000000000000E+00  0.0000000000000E+00
295  2.9400000000000E+00  0.0000000000000E+00  0.0000000000000E+00
296  2.9500000000000E+00  0.0000000000000E+00  0.0000000000000E+00
297  2.9600000000000E+00  0.0000000000000E+00  0.0000000000000E+00
298  2.9700000000000E+00  0.0000000000000E+00  0.0000000000000E+00
299  2.9800000000000E+00  0.0000000000000E+00  0.0000000000000E+00
300  2.9900000000000E+00  0.0000000000000E+00  0.0000000000000E+00
301  3.0000000000000E+00  0.0000000000000E+00  0.0000000000000E+00
302  3.0100000000000E+00  0.0000000000000E+00  0.0000000000000E+00
303  3.0200000000000E+00  0.0000000000000E+00  0.0000000000000E+00
304  3.0300000000000E+00  0.0000000000000E+00  0.0000000000000E+00
305  3.0400000000000E+00  0.0000000000000E+00  0.0000000000000E+00
306  3.0500000000000E+00  0.0000000000000E+00  0.0000000000000E+00
307  3.0600000000000E+00  0.0000000000000E+00  0.0000000000000E+00
308  3.0700000000000E+00  0.0000000000000E+00  0.0000000000000E+00
309  3.0800000000000E+00  0.0000000000000E+00  0.0000000000000E+00
310  3.0900000000000E+00  0.0000000000000E+00  0.0000000000000E+00
311  3.1000000000000E+00  0.0000000000000E+00  0.0000000000000E+00
312  3.1100000000000E+00  0.0000000000000E+00  0.0000000000000E+00
313  3.1200000000000E+00  0.0000000000000E+00  0.0000000000000E+00
314  3.1300000000000E+00  0.0000000000000E+00  0.0000000000000E+00
315  3.1400000000000E+00  0.0000000000000E+00  0.0000000000000E+00
316  3.1500000000000E+00  0.0000000000000E+00  0.0000000000000E+00
317  3.1600000000000E+00  0.0000000000000E+00  0.0000000000000E+00
318  3.1700000000000E+00  0.0000000000000E+00  0.0000000000000E+00
319  3.1800000000000E+00  0.0000000000000E+00  0.0000000000000E+00
320  3.1900000000000E+00  0.0000000000000E+00  0.0000000000000E+00
321  3.2000000000000E+00  0.0000000000000E+00  0.0000000000000E+00
322  3.2100000000000E+00  0.0000000000000E+00  0.0000000000000E+00
323  3.2200000000000E+00  0.0000000000000E+00  0.0000000000000E+00
324  3.2300000000000E+00  0.0000000000000E+00  0.0000000000000E+00
325  3.2400000000000E+00  0.0000000000000E+00  0.0000000000000E+00
326  3.2500000000000E+00  0.0000000000000E+00  0.0000000000000E+00
327  3.2600000000000E+00  0.0000000000000E+00  0.0000000000000E+00
328  3.2700000000000E+00  0.0000000000000E+00  0.0000000000000E+00
329  3.2800000000000E+00  0.0000000000000E+00  0.0000000000000E+00
330  3.2900000000000E+00  0.0000000000000E+00  0.0000000000000E+00
331  3.3000000000000E+00  0.0000000000000E+00  0.0000000000000E+00
332  3.3100000000000E+00  0.0000000000000E+00  0.0000000000000E+00
333  3.3200000000000E+00  0.0000000000000E+00  0.0000000000000E+00
334  3.3300000000000E+00  0.0000000000000E+00  0.0000000000000E+00
335  3.3400000000000E+00  0.0000000000000E+00  0.0000000000000E+00
336  3.3500000000000E+00  0.0000000000000E+00  0.0000000000000E+00
337  3.3600000000000E+00  0.0000000000000E+00  0.0000000000000E+00
338  3.3700000000000E+00  0.0000000000000E+00  0.0000000000000E+00
339  3.3800000000000E+00  0.0000000000000E+00  0.0000000000000E+00
340  3.3900000000000E+00  0.0000000000000E+00  0.0000000000000E+00
341  3.4000000000000E+00  0.0000000000000E+00  0.0000000000000E+00
342  3.4100000000000E+00  0.0000000000000E+00  0.0000000000000E+00
343  3.4200000000000E+00  0.0000000000000E+00  0.0000000000000E+00
344  3.4300000000000E+00  0.0000000000000E+00  0.0000000000000E+00
345  3.4400000000000E+00  0.0000000000000E+00  0.0000000000000E+00
346  3.4500000000000E+00  0.0000000000000E+00  0.0000000000000E+00
347  3.4600000000000E+00  0.0000000000000E+00  0.0000000000000E+00
348  3.4700000000000E+00  0.0000000000000E+00  0.0000000000000E+00
349  3.4800000000000E+00  0.0000000000000E+00  0.0000000000000E+00
350  3.4900000000000E+00  0.0000000000000E+00  0.0000000000000E+00
351  3.5000000000000E+00  0.0000000000000E+00  0.0000000000000E+00
352  3.5100000000000E+00  0.0000000000000E+00  0.0000000000000E+00
353  3.5200000000000E+00  0.0000000000000E+00  0.0000000000000E+00
354  3.5300000000000E+00  0.0000000000000E+00  0.0000000000000E+00
355  3.5400000000000E+00  0.0000000000000E+00  0.0000000000000E+00
356  3.5500000000000E+00  0.0000000000000E+00  0.0000000000000E+00
357  3.5600000000000E+00  0.0000000000000E+00  0.0000000000000E+00
358  3.5700000000000E+00  0.0000000000000E+00  0.0000000000000E+00
359  3.5800000000000E+00  0.0000000000000E+00  0.0000000000000E+00
360  3.5900000000000E+00  0.0000000000000E+00  0.0000000000000E+00
361  3.6000000000000E+00  0.0000000000000E+00  0.0000000000000E+00
362  3.6100000000000E+00  0.0000000000000E+00  0.0000000000000E+00
363  3.6200000000000E+00  0.0000000000000E+00  0.0000000000000E+00
364  3.6300000000000E+00  0.0000000000000E+00  0.0000000000000E+00
365  3.6400000000000E+00  0.0000000000000E+00  0.0000000000000E+00
366  3.6500000000000E+00  0.0000000000000E+00  0.0000000000000E+00
367  3.6600000000000E+00  0.0000000000000E+00  0.0000000000000E+00
368  3.6700000000000E+00  0.0000000000000E+00  0.0000000000000E+00
369  3.6800000000000E+00  0.0000000000000E+00  0.0000000000000E+00
370  3.6900000000000E+00  0.0000000000000E+00  0.0000000000000E+00
371  3.7000000000000E+00  0.0000000000000E+00  0.0000000000000E+00
372  3.7100000000000E+00  0.0000000000000E+00  0.0000000000000E+00
373  3.7200000000000E+00  0.0000000000000E+00  0.0000000000000E+00
374  3.7300000000000E+00  0.0000000000000E+00  0.0000000000000E+00
375  3.7400000000000E+00  0.0000000000000E+00  0.0000000000000E+00
376  3.7500000000000E+00  0.0000000000000E+00  0.0000000000000E+00
377  3.7600000000000E+00  0.0000000000000E+00  0.0000000000000E+00
378  3.7700000000000E+00  0.0000000000000E+00  0.0000000000000E+00
379  3.7800000000000E+00  0.0000000000000E+00  0.0000000000000E+00
380  3.7900000000000E+00  0.0000000000000E+00  0.0000000000000E+00
381  3.8000000000000E+00  0.0000000000000E+00  0.0000000000000E+00
382  3.8100000000000E+00  0.0000000000000E+00  0.0000000000000E+00
383  3.8200000000000E+00  0.0000000000000E+00  0.0000000000000E+00
384  3.8300000000000E+00  0.0000000000000E+00  0.0000000000000E+00
385  3.8400000000000E+00  0.0000000000000E+00  0.0000000000000E+00
386  3.8500000000000E+00  0.0000000000000E+00  0.0000000000000E+00
387  3.8600000000000E+00  0.0000000000000E+00  0.0000000000000E+00
388  3.8700000000000E+00  0.0000000000000E+00  0.0000000000000E+00
389  3.8800000000000E+00  0.0000000000000E+00  0.0000000000000E+00
390  3.8900000000000E+00  0.0000000000000E+00  0.0000000000000E+00
391  3.9000000000000E+00  0.0000000000000E+00  0.0000000000000E+00
392  3.9100000000000E+00  0.0000000000000E+00  0.0000000000000E+00
393  3.9200000000000E+00  0.0000000000000E+00  0.0000000000000E+00
394  3.9300000000000E+00  0.0000000000000E+00  0.0000000000000E+00
395  3.9400000000000E+00  0.0000000000000E+00  0.0000000000000E+00
396  3.9500000000000E+00  0.0000000000000E+00  0.0000000000000E+00
397  3.9600000000000E+00  0.0000000000000E+00  0.0000000000000E+00
398  3.9700000000000E+00  0.0000000000000E+00  0.0000000000000E+00
399  3.9800000000000E+00  0.0000000000000E+00  0.0000000000000E+00
400  3.9900000000000E+00  0.0000000000000E+00  0.0000000000000E+00
401  4.0000000000000E+00  0.0000000000000E+00  0.0000000000000E+00
402  4.0100000000000E+00  0.0000000000000E+00  0.0000000000000E+00
403  4.0200000000000E+00  0.0000000000000E+00  0.0000000000000E+00
404  4.0300000000000E+00  0.0000000000000E+00  0.0000000000000E+00
405  4.0400000000000E+00  0.0000000000000E+00  0.0000000000000E+00
406  4.0500000000000E+00  0.0000000000000E+00  0.0000000000000E+00
407  4.0600000000000E+00  0.0000000000000E+00  0.0000000000000E+00
408  4.0700000000000E+00  0.0000000000000E+00  0.0000000000000E+00
409  4.0800000000000E+00  0.0000000000000E+00  0.0000000000000E+00
410  4.0900000000000E+00  0.0000000000000E+00  0.0000000000000E+00
411  4.1000000000000E+00  0.0000000000000E+00  0.0000000000000E+00
412  4.1100000000000E+00  0.0000000000000E+00  0.0000000000000E+00
413  4.1200000000000E+00  0.0000000000000E+00  0.0000000000000E+00
414  4.1300000000000E+00  0.0000000000000E+00  0.0000000000000E+00
415  4.1400000000000E+00  0.0000000000000E+00  0.0000000000000E+00
416  4.1500000000000E+00  0.0000000000000E+00  0.0000000000000E+00
417  4.1600000000000E+00  0.0000000000000E+00  0.0000000000000E+00
418  4.1700000000000E+00  0.0000000000000E+00  0.0000000000000E+00
419  4.1800000000000E+00  0.0000000000000E+00  0.0000000000000E+00
420  4.1900000000000E+00  0.0000000000000E+00  0.0000000000000E+00
421  4.2000000000000E+00  0.0000000000000E+00  0.0000000000000E+00
422  4.2100000000000E+00  0.0000000000000E+00  0.0000000000000E+00
423  4.2200000000000E+00  0.0000000000000E+00  0.0000000000000E+00
424  4.2300000000000E+00  0.0000000000000E+00  0.0000000000000E+00
425  4.2400000000000E+00  0.0000000000000E+00  0.0000000000000E+00
426  4.2500000000000E+00  0.0000000000000E+00  0.0000000000000E+00
427  4.2600000000000E+00  0.0000000000000E+00  0.0000000000000E+00
428  4.2700000000000E+00  0.0000000000000E+00  0.0000000000000E+00
429  4.2800000000000E+00  0.0000000000000E+00  0.0000000000000E+00
430  4.2900000000000E+00  0.0000000000000E+00  0.0000000000000E+00
431  4.3000000000000E+00  0.0000000000000E+00  0.0000000000000E+00
432  4.3100000000000E+00  0.0000000000000E+00  0.0000000000000E+00
433  4.3200000000000E+00  0.0000000000000E+00  0.0000000000000E+00
434  4.3300000000000E+00  0.0000000000000E+00  0.0000000000000E+00
435  4.3400000000000E+00  0.0000000000000E+00  0.0000000000000E+00
436  4.3500000000000E+00  0.0000000000000E+00  0.0000000000000E+00
437  4.3600000000000E+00  0.0000000000000E+00  0.0000000000000E+00
438  4.3700000000000E+00  0.0000000000000E+00  0.0000000000000E+00
439  4.3800000000000E+00  0.0000000000000E+00  0.0000000000000E+00
440  4.3900000000000E+00  0.0000000000000E+00  0.0000000000000E+00
441  4.4000000000000E+00  0.0000000000000E+00  0.0000000000000E+00
442  4.4100000000000E+00  0.0000000000000E+00  0.0000000000000E+00
443  4.4200000000000E+00  0.0000000000000E+00  0.0000000000000E+00