As    ONCVPSP-3.2.3.1  r_core=   1.76603   1.70395   1.80867
33.0000     15.0000      170703    zatom,zion,pspd
8      11   2     4   600     0    pspcod,pspxc,lmax,lloc,mmax,r2well
5.99000000  5.00000000  0.00000000    rchrg fchrg qchrg
2     2     2     0     0    nproj
1     1           extension_switch
0                         8.3051104263369E+00  8.7481408998565E-01
1  0.0000000000000E+00  4.8439585675908E-12 -6.1019578279087E-11
2  1.0000000000000E-02  3.6526386455946E-02 -1.8101689915922E-02
3  2.0000000000000E-02  7.3034844831218E-02 -3.6194049716116E-02
4  3.0000000000000E-02  1.0950738902133E-01 -5.4267533353833E-02
5  4.0000000000000E-02  1.4592591726735E-01 -7.2312164934732E-02
6  5.0000000000000E-02  1.8227215531043E-01 -9.0317328813649E-02
7  6.0000000000000E-02  2.1852760072105E-01 -1.0827156567267E-01
8  7.0000000000000E-02  2.5467346878908E-01 -1.2616237650238E-01
9  8.0000000000000E-02  2.9069064035571E-01 -1.4397603634711E-01
10  9.0000000000000E-02  3.2655961196247E-01 -1.6169741959986E-01
11  1.0000000000000E-01  3.6226044868519E-01 -1.7930983854344E-01
12  1.1000000000000E-01  3.9777274001203E-01 -1.9679489673215E-01
13  1.2000000000000E-01  4.3307555911513E-01 -2.1413235869400E-01
14  1.3000000000000E-01  4.6814742585376E-01 -2.3130003730760E-01
15  1.4000000000000E-01  5.0296627383480E-01 -2.4827370007138E-01
16  1.5000000000000E-01  5.3750942184194E-01 -2.6502699533733E-01
17  1.6000000000000E-01  5.7175354992993E-01 -2.8153139942712E-01
18  1.7000000000000E-01  6.0567468046334E-01 -2.9775618538780E-01
19  1.8000000000000E-01  6.3924816436089E-01 -3.1366841397675E-01
20  1.9000000000000E-01  6.7244867278700E-01 -3.2923294729452E-01
21  2.0000000000000E-01  7.0525019451073E-01 -3.4441248530891E-01
22  2.1000000000000E-01  7.3762603912987E-01 -3.5916762533708E-01
23  2.2000000000000E-01  7.6954884633368E-01 -3.7345694437515E-01
24  2.3000000000000E-01  8.0099060135246E-01 -3.8723710398768E-01
25  2.4000000000000E-01  8.3192265671481E-01 -4.0046297729544E-01
26  2.5000000000000E-01  8.6231576040560E-01 -4.1308779742818E-01
27  2.6000000000000E-01  8.9214009048755E-01 -4.2506332664308E-01
28  2.7000000000000E-01  9.2136529621885E-01 -4.3634004514859E-01
29  2.8000000000000E-01  9.4996054566680E-01 -4.4686735852071E-01
30  2.9000000000000E-01  9.7789457978461E-01 -4.5659382245287E-01
31  3.0000000000000E-01  1.0051357728841E+00 -4.6546738344560E-01
32  3.1000000000000E-01  1.0316521994022E+00 -4.7343563391649E-01
33  3.2000000000000E-01  1.0574117068237E+00 -4.8044608009706E-01
34  3.3000000000000E-01  1.0823819945849E+00 -4.8644642098144E-01
35  3.4000000000000E-01  1.1065306987496E+00 -4.9138483650228E-01
36  3.5000000000000E-01  1.1298254822073E+00 -4.9521028303454E-01
37  3.6000000000000E-01  1.1522341301100E+00 -4.9787279426535E-01
38  3.7000000000000E-01  1.1737246502263E+00 -4.9932378542184E-01
39  3.8000000000000E-01  1.1942653778541E+00 -4.9951635881591E-01
40  3.9000000000000E-01  1.2138250848994E+00 -4.9840560864770E-01
41  4.0000000000000E-01  1.2323730926908E+00 -4.9594892300680E-01
42  4.1000000000000E-01  1.2498793880686E+00 -4.9210628102260E-01
43  4.2000000000000E-01  1.2663147422534E+00 -4.8684054314265E-01
44  4.3000000000000E-01  1.2816508319670E+00 -4.8011773255889E-01
45  4.4000000000000E-01  1.2958603622519E+00 -4.7190730585774E-01
46  4.5000000000000E-01  1.3089171904063E+00 -4.6218241103922E-01
47  4.6000000000000E-01  1.3207964504288E+00 -4.5092013113233E-01
48  4.7000000000000E-01  1.3314746773432E+00 -4.3810171172849E-01
49  4.8000000000000E-01  1.3409299307558E+00 -4.2371277086098E-01
50  4.9000000000000E-01  1.3491419169811E+00 -4.0774348977484E-01
51  5.0000000000000E-01  1.3560921090591E+00 -3.9018878325801E-01
52  5.1000000000000E-01  1.3617638639777E+00 -3.7104844833952E-01
53  5.2000000000000E-01  1.3661425364083E+00 -3.5032729030309E-01
54  5.3000000000000E-01  1.3692155882611E+00 -3.2803522511336E-01
55  5.4000000000000E-01  1.3709726933692E+00 -3.0418735750684E-01
56  5.5000000000000E-01  1.3714058366150E+00 -2.7880403415697E-01
57  5.6000000000000E-01  1.3705094068268E+00 -2.5191087148549E-01
58  5.7000000000000E-01  1.3682802827847E+00 -2.2353875785352E-01
59  5.8000000000000E-01  1.3647179116963E+00 -1.9372383003064E-01
60  5.9000000000000E-01  1.3598243795272E+00 -1.6250742400171E-01
61  6.0000000000000E-01  1.3536044725974E+00 -1.2993600033181E-01
62  6.1000000000000E-01  1.3460657298889E+00 -9.6061044467672E-02
63  6.2000000000000E-01  1.3372184855464E+00 -6.0938942505846E-02
64  6.3000000000000E-01  1.3270759010942E+00 -2.4630833106270E-02
65  6.4000000000000E-01  1.3156539869369E+00  1.2797563629413E-02
66  6.5000000000000E-01  1.3029716127610E+00  5.1276139361821E-02
67  6.6000000000000E-01  1.2890505065068E+00  9.0730611721581E-02
68  6.7000000000000E-01  1.2739152416376E+00  1.3108275832581E-01
69  6.8000000000000E-01  1.2575932124890E+00  1.7225066930308E-01
70  6.9000000000000E-01  1.2401145975471E+00  2.1414901692909E-01
71  7.0000000000000E-01  1.2215123105661E+00  2.5668934089179E-01
72  7.1000000000000E-01  1.2018219395035E+00  2.9978034763050E-01
73  7.2000000000000E-01  1.1810816733192E+00  3.4332822213281E-01
74  7.3000000000000E-01  1.1593322167551E+00  3.8723695052269E-01
75  7.4000000000000E-01  1.1366166932814E+00  4.3140865173696E-01
76  7.5000000000000E-01  1.1129805364672E+00  4.7574391656168E-01
77  7.6000000000000E-01  1.0884713701039E+00  5.2014215228749E-01
78  7.7000000000000E-01  1.0631388774815E+00  5.6450193124222E-01
79  7.8000000000000E-01  1.0370346602837E+00  6.0872134147003E-01
80  7.9000000000000E-01  1.0102120876406E+00  6.5269833784880E-01
81  8.0000000000000E-01  9.8272613593941E-01  6.9633109197060E-01
82  8.1000000000000E-01  9.5463322005915E-01  7.3951833915439E-01
83  8.2000000000000E-01  9.2599101675489E-01  7.8215972101300E-01
84  8.3000000000000E-01  8.9685828097425E-01  8.2415612205968E-01
85  8.4000000000000E-01  8.6729465594161E-01  8.6540999891013E-01
86  8.5000000000000E-01  8.3736047789438E-01  9.0582570071471E-01
87  8.6000000000000E-01  8.0711657639909E-01  9.4530977954104E-01
88  8.7000000000000E-01  7.7662407121401E-01  9.8377128951781E-01
89  8.8000000000000E-01  7.4594416669795E-01  1.0211220736471E+00
90  8.9000000000000E-01  7.1513794479221E-01  1.0572770372921E+00
91  9.0000000000000E-01  6.8426615762356E-01  1.0921544074505E+00
92  9.1000000000000E-01  6.5338902079117E-01  1.1256759770281E+00
93  9.2000000000000E-01  6.2256600840806E-01  1.1577673334333E+00
94  9.3000000000000E-01  5.9185565096938E-01  1.1883580709205E+00
95  9.4000000000000E-01  5.6131533711404E-01  1.2173819862128E+00
96  9.5000000000000E-01  5.3100112033395E-01  1.2447772570416E+00
97  9.6000000000000E-01  5.0096753166568E-01  1.2704866033390E+00
98  9.7000000000000E-01  4.7126739937275E-01  1.2944574309180E+00
99  9.8000000000000E-01  4.4195167659463E-01  1.3166419575682E+00
100  9.9000000000000E-01  4.1306927789795E-01  1.3369973215843E+00
101  1.0000000000000E+00  3.8466692561947E-01  1.3554856728281E+00
102  1.0100000000000E+00  3.5678900683854E-01  1.3720742465023E+00
103  1.0200000000000E+00  3.2947744175812E-01  1.3867354198849E+00
104  1.0300000000000E+00  3.0277156421034E-01  1.3994467523377E+00
105  1.0400000000000E+00  2.7670801493121E-01  1.4101910089621E+00
106  1.0500000000000E+00  2.5132064818204E-01  1.4189561683197E+00
107  1.0600000000000E+00  2.2664045220930E-01  1.4257354146844E+00
108  1.0700000000000E+00  2.0269548395905E-01  1.4305271153238E+00
109  1.0800000000000E+00  1.7951081837644E-01  1.4333347833372E+00
110  1.0900000000000E+00  1.5710851252818E-01  1.4341670265965E+00
111  1.1000000000000E+00  1.3550758471270E-01  1.4330374833499E+00
112  1.1100000000000E+00  1.1472400861215E-01  1.4299647450575E+00
113  1.1200000000000E+00  9.4770722465300E-02  1.4249722670232E+00
114  1.1300000000000E+00  7.5657653138078E-02  1.4180882673839E+00
115  1.1400000000000E+00  5.7391754893871E-02  1.4093456150068E+00
116  1.1500000000000E+00  3.9977062562019E-02  1.3987817068248E+00
117  1.1600000000000E+00  2.3414758723746E-02  1.3864383351227E+00
118  1.1700000000000E+00  7.7032544426992E-03  1.3723615452568E+00
119  1.1800000000000E+00 -7.1617169899083E-03  1.3566014842694E+00
120  1.1900000000000E+00 -2.1186993932808E-02  1.3392122408234E+00
121  1.2000000000000E+00 -3.4381868587603E-02  1.3202516768476E+00
122  1.2100000000000E+00 -4.6757958267741E-02  1.2997812512546E+00
123  1.2200000000000E+00 -5.8329066560476E-02  1.2778658360608E+00
124  1.2300000000000E+00 -6.9111035272195E-02  1.2545735251948E+00
125  1.2400000000000E+00 -7.9121588084335E-02  1.2299754362490E+00
126  1.2500000000000E+00 -8.8380166875488E-02  1.2041455054157E+00
127  1.2600000000000E+00 -9.6907761733767E-02  1.1771602757918E+00
128  1.2700000000000E+00 -1.0472673568442E-01  1.1490986792256E+00
129  1.2800000000000E+00 -1.1186064518084E-01  1.1200418118641E+00
130  1.2900000000000E+00 -1.1833405743670E-01  1.0900727035190E+00
131  1.3000000000000E+00 -1.2417236565604E-01  1.0592760809710E+00
132  1.3100000000000E+00 -1.2940160323987E-01  1.0277381253214E+00
133  1.3200000000000E+00 -1.3404825802400E-01  9.9554622348058E-01
134  1.3300000000000E+00 -1.3813908756768E-01  9.6278871390882E-01
135  1.3400000000000E+00 -1.4170093654211E-01  9.2955462669824E-01
136  1.3500000000000E+00 -1.4476055716116E-01  8.9593341812577E-01
137  1.3600000000000E+00 -1.4734443360087E-01  8.6201469981382E-01
138  1.3700000000000E+00 -1.4947861133784E-01  8.2788796262982E-01
139  1.3800000000000E+00 -1.5118853217001E-01  7.9364229555315E-01
140  1.3900000000000E+00 -1.5249887578471E-01  7.5936609967948E-01
141  1.4000000000000E+00 -1.5343340855162E-01  7.2514679763642E-01
142  1.4100000000000E+00 -1.5401484014934E-01  6.9107053873977E-01
143  1.4200000000000E+00 -1.5426468873367E-01  6.5722190014383E-01
144  1.4300000000000E+00 -1.5420315497775E-01  6.2368358449659E-01
145  1.4400000000000E+00 -1.5384900556853E-01  5.9053611443833E-01
146  1.4500000000000E+00 -1.5321946642676E-01  5.5785752449648E-01
147  1.4600000000000E+00 -1.5233012588187E-01  5.2572305096418E-01
148  1.4700000000000E+00 -1.5119484814837E-01  4.9420482025914E-01
149  1.4800000000000E+00 -1.4982569695104E-01  4.6337153662839E-01
150  1.4900000000000E+00 -1.4823286962627E-01  4.3328816970975E-01
151  1.5000000000000E+00 -1.4642464137347E-01  4.0401564294428E-01
152  1.5100000000000E+00 -1.4440731971399E-01  3.7561052354943E-01
153  1.5200000000000E+00 -1.4218520888740E-01  3.4812471500821E-01
154  1.5300000000000E+00 -1.3976058386697E-01  3.2160515305777E-01
155  1.5400000000000E+00 -1.3713367381484E-01  2.9609350607252E-01
156  1.5500000000000E+00 -1.3430265415607E-01  2.7162588011519E-01
157  1.5600000000000E+00 -1.3126364738226E-01  2.4823253086478E-01
158  1.5700000000000E+00 -1.2801073217884E-01  2.2593758648410E-01
159  1.5800000000000E+00 -1.2453595947314E-01  2.0475877344179E-01
160  1.5900000000000E+00 -1.2082940464447E-01  1.8470730353330E-01
161  1.6000000000000E+00 -1.1687909878948E-01  1.6578712888118E-01
162  1.6100000000000E+00 -1.1267113029691E-01  1.4799503286994E-01
163  1.6200000000000E+00 -1.0819000277155E-01  1.3132205743899E-01
164  1.6300000000000E+00 -1.0341892822240E-01  1.1575448687099E-01
165  1.6400000000000E+00 -9.8340222085070E-02  1.0127523821350E-01
166  1.6500000000000E+00 -9.2935509220416E-02  8.7864300960234E-02
167  1.6600000000000E+00 -8.7185730663475E-02  7.5498127681528E-02
168  1.6700000000000E+00 -8.1071251985582E-02  6.4149592968300E-02
169  1.6800000000000E+00 -7.4571964668256E-02  5.3787959575999E-02
170  1.6900000000000E+00 -6.7667363742474E-02  4.4378750920692E-02
171  1.7000000000000E+00 -6.0336626377919E-02  3.5883672245146E-02
172  1.7100000000000E+00 -5.2518713321112E-02  2.8249226265383E-02
173  1.7200000000000E+00 -4.4275512501905E-02  2.1452729402580E-02
174  1.7300000000000E+00 -3.5869267966741E-02  1.5528530068949E-02
175  1.7400000000000E+00 -2.6669453447115E-02  1.0241669724056E-02
176  1.7500000000000E+00 -1.5518235367165E-02  5.1823354689535E-03
177  1.7600000000000E+00 -4.4467781815406E-03  9.2293490859214E-04
178  1.7700000000000E+00  1.6171152142686E-03 -1.0826983365127E-03
179  1.7800000000000E+00  1.5457301142555E-03 -7.4007048081745E-04
180  1.7900000000000E+00 -2.3888336729773E-04  1.2187757970358E-04
181  1.8000000000000E+00 -4.5210656431929E-04  2.2076616840870E-04
182  1.8100000000000E+00  1.5619881041215E-05 -9.4718831478359E-06
183  1.8200000000000E+00  6.7674782800882E-05 -4.0152989216325E-05
184  1.8300000000000E+00  3.4320859077930E-06 -2.0051080464347E-06
185  1.8400000000000E+00 -8.2530847142679E-07  1.9942559867324E-06
186  1.8500000000000E+00 -2.5610761910344E-07  6.1885242951868E-07
187  1.8600000000000E+00  0.0000000000000E+00  0.0000000000000E+00
188  1.8700000000000E+00  0.0000000000000E+00  0.0000000000000E+00
189  1.8800000000000E+00  0.0000000000000E+00  0.0000000000000E+00
190  1.8900000000000E+00  0.0000000000000E+00  0.0000000000000E+00
191  1.9000000000000E+00  0.0000000000000E+00  0.0000000000000E+00
192  1.9100000000000E+00  0.0000000000000E+00  0.0000000000000E+00
193  1.9200000000000E+00  0.0000000000000E+00  0.0000000000000E+00
194  1.9300000000000E+00  0.0000000000000E+00  0.0000000000000E+00
195  1.9400000000000E+00  0.0000000000000E+00  0.0000000000000E+00
196  1.9500000000000E+00  0.0000000000000E+00  0.0000000000000E+00
197  1.9600000000000E+00  0.0000000000000E+00  0.0000000000000E+00
198  1.9700000000000E+00  0.0000000000000E+00  0.0000000000000E+00
199  1.9800000000000E+00  0.0000000000000E+00  0.0000000000000E+00
200  1.9900000000000E+00  0.0000000000000E+00  0.0000000000000E+00
201  2.0000000000000E+00  0.0000000000000E+00  0.0000000000000E+00
202  2.0100000000000E+00  0.0000000000000E+00  0.0000000000000E+00
203  2.0200000000000E+00  0.0000000000000E+00  0.0000000000000E+00
204  2.0300000000000E+00  0.0000000000000E+00  0.0000000000000E+00
205  2.0400000000000E+00  0.0000000000000E+00  0.0000000000000E+00
206  2.0500000000000E+00  0.0000000000000E+00  0.0000000000000E+00
207  2.0600000000000E+00  0.0000000000000E+00  0.0000000000000E+00
208  2.0700000000000E+00  0.0000000000000E+00  0.0000000000000E+00
209  2.0800000000000E+00  0.0000000000000E+00  0.0000000000000E+00
210  2.0900000000000E+00  0.0000000000000E+00  0.0000000000000E+00
211  2.1000000000000E+00  0.0000000000000E+00  0.0000000000000E+00
212  2.1100000000000E+00  0.0000000000000E+00  0.0000000000000E+00
213  2.1200000000000E+00  0.0000000000000E+00  0.0000000000000E+00
214  2.1300000000000E+00  0.0000000000000E+00  0.0000000000000E+00
215  2.1400000000000E+00  0.0000000000000E+00  0.0000000000000E+00
216  2.1500000000000E+00  0.0000000000000E+00  0.0000000000000E+00
217  2.1600000000000E+00  0.0000000000000E+00  0.0000000000000E+00
218  2.1700000000000E+00  0.0000000000000E+00  0.0000000000000E+00
219  2.1800000000000E+00  0.0000000000000E+00  0.0000000000000E+00
220  2.1900000000000E+00  0.0000000000000E+00  0.0000000000000E+00
221  2.2000000000000E+00  0.0000000000000E+00  0.0000000000000E+00
222  2.2100000000000E+00  0.0000000000000E+00  0.0000000000000E+00
223  2.2200000000000E+00  0.0000000000000E+00  0.0000000000000E+00
224  2.2300000000000E+00  0.0000000000000E+00  0.0000000000000E+00
225  2.2400000000000E+00  0.0000000000000E+00  0.0000000000000E+00
226  2.2500000000000E+00  0.0000000000000E+00  0.0000000000000E+00
227  2.2600000000000E+00  0.0000000000000E+00  0.0000000000000E+00
228  2.2700000000000E+00  0.0000000000000E+00  0.0000000000000E+00
229  2.2800000000000E+00  0.0000000000000E+00  0.0000000000000E+00
230  2.2900000000000E+00  0.0000000000000E+00  0.0000000000000E+00
231  2.3000000000000E+00  0.0000000000000E+00  0.0000000000000E+00
232  2.3100000000000E+00  0.0000000000000E+00  0.0000000000000E+00
233  2.3200000000000E+00  0.0000000000000E+00  0.0000000000000E+00
234  2.3300000000000E+00  0.0000000000000E+00  0.0000000000000E+00
235  2.3400000000000E+00  0.0000000000000E+00  0.0000000000000E+00
236  2.3500000000000E+00  0.0000000000000E+00  0.0000000000000E+00
237  2.3600000000000E+00  0.0000000000000E+00  0.0000000000000E+00
238  2.3700000000000E+00  0.0000000000000E+00  0.0000000000000E+00
239  2.3800000000000E+00  0.0000000000000E+00  0.0000000000000E+00
240  2.3900000000000E+00  0.0000000000000E+00  0.0000000000000E+00
241  2.4000000000000E+00  0.0000000000000E+00  0.0000000000000E+00
242  2.4100000000000E+00  0.0000000000000E+00  0.0000000000000E+00
243  2.4200000000000E+00  0.0000000000000E+00  0.0000000000000E+00
244  2.4300000000000E+00  0.0000000000000E+00  0.0000000000000E+00
245  2.4400000000000E+00  0.0000000000000E+00  0.0000000000000E+00
246  2.4500000000000E+00  0.0000000000000E+00  0.0000000000000E+00
247  2.4600000000000E+00  0.0000000000000E+00  0.0000000000000E+00
248  2.4700000000000E+00  0.0000000000000E+00  0.0000000000000E+00
249  2.4800000000000E+00  0.0000000000000E+00  0.0000000000000E+00
250  2.4900000000000E+00  0.0000000000000E+00  0.0000000000000E+00
251  2.5000000000000E+00  0.0000000000000E+00  0.0000000000000E+00
252  2.5100000000000E+00  0.0000000000000E+00  0.0000000000000E+00
253  2.5200000000000E+00  0.0000000000000E+00  0.0000000000000E+00
254  2.5300000000000E+00  0.0000000000000E+00  0.0000000000000E+00
255  2.5400000000000E+00  0.0000000000000E+00  0.0000000000000E+00
256  2.5500000000000E+00  0.0000000000000E+00  0.0000000000000E+00
257  2.5600000000000E+00  0.0000000000000E+00  0.0000000000000E+00
258  2.5700000000000E+00  0.0000000000000E+00  0.0000000000000E+00
259  2.5800000000000E+00  0.0000000000000E+00  0.0000000000000E+00
260  2.5900000000000E+00  0.0000000000000E+00  0.0000000000000E+00
261  2.6000000000000E+00  0.0000000000000E+00  0.0000000000000E+00
262  2.6100000000000E+00  0.0000000000000E+00  0.0000000000000E+00
263  2.6200000000000E+00  0.0000000000000E+00  0.0000000000000E+00
264  2.6300000000000E+00  0.0000000000000E+00  0.0000000000000E+00
265  2.6400000000000E+00  0.0000000000000E+00  0.0000000000000E+00
266  2.6500000000000E+00  0.0000000000000E+00  0.0000000000000E+00
267  2.6600000000000E+00  0.0000000000000E+00  0.0000000000000E+00
268  2.6700000000000E+00  0.0000000000000E+00  0.0000000000000E+00
269  2.6800000000000E+00  0.0000000000000E+00  0.0000000000000E+00
270  2.6900000000000E+00  0.0000000000000E+00  0.0000000000000E+00
271  2.7000000000000E+00  0.0000000000000E+00  0.0000000000000E+00
272  2.7100000000000E+00  0.0000000000000E+00  0.0000000000000E+00
273  2.7200000000000E+00  0.0000000000000E+00  0.0000000000000E+00
274  2.7300000000000E+00  0.0000000000000E+00  0.0000000000000E+00
275  2.7400000000000E+00  0.0000000000000E+00  0.0000000000000E+00
276  2.7500000000000E+00  0.0000000000000E+00  0.0000000000000E+00
277  2.7600000000000E+00  0.0000000000000E+00  0.0000000000000E+00
278  2.7700000000000E+00  0.0000000000000E+00  0.0000000000000E+00
279  2.7800000000000E+00  0.0000000000000E+00  0.0000000000000E+00
280  2.7900000000000E+00  0.0000000000000E+00  0.0000000000000E+00
281  2.8000000000000E+00  0.0000000000000E+00  0.0000000000000E+00
282  2.8100000000000E+00  0.0000000000000E+00  0.0000000000000E+00
283  2.8200000000000E+00  0.0000000000000E+00  0.0000000000000E+00
284  2.8300000000000E+00  0.0000000000000E+00  0.0000000000000E+00
285  2.8400000000000E+00  0.0000000000000E+00  0.0000000000000E+00
286  2.8500000000000E+00  0.0000000000000E+00  0.0000000000000E+00
287  2.8600000000000E+00  0.0000000000000E+00  0.0000000000000E+00
288  2.8700000000000E+00  0.0000000000000E+00  0.0000000000000E+00
289  2.8800000000000E+00  0.0000000000000E+00  0.0000000000000E+00
290  2.8900000000000E+00  0.0000000000000E+00  0.0000000000000E+00
291  2.9000000000000E+00  0.0000000000000E+00  0.0000000000000E+00
292  2.9100000000000E+00  0.0000000000000E+00  0.0000000000000E+00
293  2.9200000000000E+00  0.0000000000000E+00  0.0000000000000E+00
294  2.9300000000000E+00  0.0000000000000E+00  0.0000000000000E+00
295  2.9400000000000E+00  0.0000000000000E+00  0.0000000000000E+00
296  2.9500000000000E+00  0.0000000000000E+00  0.0000000000000E+00
297  2.9600000000000E+00  0.0000000000000E+00  0.0000000000000E+00
298  2.9700000000000E+00  0.0000000000000E+00  0.0000000000000E+00
299  2.9800000000000E+00  0.0000000000000E+00  0.0000000000000E+00
300  2.9900000000000E+00  0.0000000000000E+00  0.0000000000000E+00
301  3.0000000000000E+00  0.0000000000000E+00  0.0000000000000E+00
302  3.0100000000000E+00  0.0000000000000E+00  0.0000000000000E+00
303  3.0200000000000E+00  0.0000000000000E+00  0.0000000000000E+00
304  3.0300000000000E+00  0.0000000000000E+00  0.0000000000000E+00
305  3.0400000000000E+00  0.0000000000000E+00  0.0000000000000E+00
306  3.0500000000000E+00  0.0000000000000E+00  0.0000000000000E+00
307  3.0600000000000E+00  0.0000000000000E+00  0.0000000000000E+00
308  3.0700000000000E+00  0.0000000000000E+00  0.0000000000000E+00
309  3.0800000000000E+00  0.0000000000000E+00  0.0000000000000E+00
310  3.0900000000000E+00  0.0000000000000E+00  0.0000000000000E+00
311  3.1000000000000E+00  0.0000000000000E+00  0.0000000000000E+00
312  3.1100000000000E+00  0.0000000000000E+00  0.0000000000000E+00
313  3.1200000000000E+00  0.0000000000000E+00  0.0000000000000E+00
314  3.1300000000000E+00  0.0000000000000E+00  0.0000000000000E+00
315  3.1400000000000E+00  0.0000000000000E+00  0.0000000000000E+00
316  3.1500000000000E+00  0.0000000000000E+00  0.0000000000000E+00
317  3.1600000000000E+00  0.0000000000000E+00  0.0000000000000E+00
318  3.1700000000000E+00  0.0000000000000E+00  0.0000000000000E+00
319  3.1800000000000E+00  0.0000000000000E+00  0.0000000000000E+00
320  3.1900000000000E+00  0.0000000000000E+00  0.0000000000000E+00
321  3.2000000000000E+00  0.0000000000000E+00  0.0000000000000E+00
322  3.2100000000000E+00  0.0000000000000E+00  0.0000000000000E+00
323  3.2200000000000E+00  0.0000000000000E+00  0.0000000000000E+00
324  3.2300000000000E+00  0.0000000000000E+00  0.0000000000000E+00
325  3.2400000000000E+00  0.0000000000000E+00  0.0000000000000E+00
326  3.2500000000000E+00  0.0000000000000E+00  0.0000000000000E+00
327  3.2600000000000E+00  0.0000000000000E+00  0.0000000000000E+00
328  3.2700000000000E+00  0.0000000000000E+00  0.0000000000000E+00
329  3.2800000000000E+00  0.0000000000000E+00  0.0000000000000E+00
330  3.2900000000000E+00  0.0000000000000E+00  0.0000000000000E+00
331  3.3000000000000E+00  0.0000000000000E+00  0.0000000000000E+00
332  3.3100000000000E+00  0.0000000000000E+00  0.0000000000000E+00
333  3.3200000000000E+00  0.0000000000000E+00  0.0000000000000E+00
334  3.3300000000000E+00  0.0000000000000E+00  0.0000000000000E+00
335  3.3400000000000E+00  0.0000000000000E+00  0.0000000000000E+00
336  3.3500000000000E+00  0.0000000000000E+00  0.0000000000000E+00
337  3.3600000000000E+00  0.0000000000000E+00  0.0000000000000E+00
338  3.3700000000000E+00  0.0000000000000E+00  0.0000000000000E+00
339  3.3800000000000E+00  0.0000000000000E+00  0.0000000000000E+00
340  3.3900000000000E+00  0.0000000000000E+00  0.0000000000000E+00
341  3.4000000000000E+00  0.0000000000000E+00  0.0000000000000E+00
342  3.4100000000000E+00  0.0000000000000E+00  0.0000000000000E+00
343  3.4200000000000E+00  0.0000000000000E+00  0.0000000000000E+00
344  3.4300000000000E+00  0.0000000000000E+00  0.0000000000000E+00
345  3.4400000000000E+00  0.0000000000000E+00  0.0000000000000E+00
346  3.4500000000000E+00  0.0000000000000E+00  0.0000000000000E+00
347  3.4600000000000E+00  0.0000000000000E+00  0.0000000000000E+00
348  3.4700000000000E+00  0.0000000000000E+00  0.0000000000000E+00
349  3.4800000000000E+00  0.0000000000000E+00  0.0000000000000E+00
350  3.4900000000000E+00  0.0000000000000E+00  0.0000000000000E+00
351  3.5000000000000E+00  0.0000000000000E+00  0.0000000000000E+00
352  3.5100000000000E+00  0.0000000000000E+00  0.0000000000000E+00
353  3.5200000000000E+00  0.0000000000000E+00  0.0000000000000E+00
354  3.5300000000000E+00  0.0000000000000E+00  0.0000000000000E+00
355  3.5400000000000E+00  0.0000000000000E+00  0.0000000000000E+00
356  3.5500000000000E+00  0.0000000000000E+00  0.0000000000000E+00
357  3.5600000000000E+00  0.0000000000000E+00  0.0000000000000E+00
358  3.5700000000000E+00  0.0000000000000E+00  0.0000000000000E+00
359  3.5800000000000E+00  0.0000000000000E+00  0.0000000000000E+00
360  3.5900000000000E+00  0.0000000000000E+00  0.0000000000000E+00
361  3.6000000000000E+00  0.0000000000000E+00  0.0000000000000E+00
362  3.6100000000000E+00  0.0000000000000E+00  0.0000000000000E+00
363  3.6200000000000E+00  0.0000000000000E+00  0.0000000000000E+00
364  3.6300000000000E+00  0.0000000000000E+00  0.0000000000000E+00
365  3.6400000000000E+00  0.0000000000000E+00  0.0000000000000E+00
366  3.6500000000000E+00  0.0000000000000E+00  0.0000000000000E+00
367  3.6600000000000E+00  0.0000000000000E+00  0.0000000000000E+00
368  3.6700000000000E+00  0.0000000000000E+00  0.0000000000000E+00
369  3.6800000000000E+00  0.0000000000000E+00  0.0000000000000E+00
370  3.6900000000000E+00  0.0000000000000E+00  0.0000000000000E+00
371  3.7000000000000E+00  0.0000000000000E+00  0.0000000000000E+00
372  3.7100000000000E+00  0.0000000000000E+00  0.0000000000000E+00
373  3.7200000000000E+00  0.0000000000000E+00  0.0000000000000E+00
374  3.7300000000000E+00  0.0000000000000E+00  0.0000000000000E+00
375  3.7400000000000E+00  0.0000000000000E+00  0.0000000000000E+00
376  3.7500000000000E+00  0.0000000000000E+00  0.0000000000000E+00
377  3.7600000000000E+00  0.0000000000000E+00  0.0000000000000E+00
378  3.7700000000000E+00  0.0000000000000E+00  0.0000000000000E+00
379  3.7800000000000E+00  0.0000000000000E+00  0.0000000000000E+00
380  3.7900000000000E+00  0.0000000000000E+00  0.0000000000000E+00
381  3.8000000000000E+00  0.0000000000000E+00  0.0000000000000E+00
382  3.8100000000000E+00  0.0000000000000E+00  0.0000000000000E+00
383  3.8200000000000E+00  0.0000000000000E+00  0.0000000000000E+00
384  3.8300000000000E+00  0.0000000000000E+00  0.0000000000000E+00
385  3.8400000000000E+00  0.0000000000000E+00  0.0000000000000E+00
386  3.8500000000000E+00  0.0000000000000E+00  0.0000000000000E+00
387  3.8600000000000E+00  0.0000000000000E+00  0.0000000000000E+00
388  3.8700000000000E+00  0.0000000000000E+00  0.0000000000000E+00
389  3.8800000000000E+00  0.0000000000000E+00  0.0000000000000E+00
390  3.8900000000000E+00  0.0000000000000E+00  0.0000000000000E+00
391  3.9000000000000E+00  0.0000000000000E+00  0.0000000000000E+00
392  3.9100000000000E+00  0.0000000000000E+00  0.0000000000000E+00
393  3.9200000000000E+00  0.0000000000000E+00  0.0000000000000E+00
394  3.9300000000000E+00  0.0000000000000E+00  0.0000000000000E+00
395  3.9400000000000E+00  0.0000000000000E+00  0.0000000000000E+00
396  3.9500000000000E+00  0.0000000000000E+00  0.0000000000000E+00
397  3.9600000000000E+00  0.0000000000000E+00  0.0000000000000E+00
398  3.9700000000000E+00  0.0000000000000E+00  0.0000000000000E+00
399  3.9800000000000E+00  0.0000000000000E+00  0.0000000000000E+00
400  3.9900000000000E+00  0.0000000000000E+00  0.0000000000000E+00
401  4.0000000000000E+00  0.0000000000000E+00  0.0000000000000E+00
402  4.0100000000000E+00  0.0000000000000E+00  0.0000000000000E+00
403  4.0200000000000E+00  0.0000000000000E+00  0.0000000000000E+00
404  4.0300000000000E+00  0.0000000000000E+00  0.0000000000000E+00
405  4.0400000000000E+00  0.0000000000000E+00  0.0000000000000E+00
406  4.0500000000000E+00  0.0000000000000E+00  0.0000000000000E+00
407  4.0600000000000E+00  0.0000000000000E+00  0.0000000000000E+00
408  4.0700000000000E+00  0.0000000000000E+00  0.0000000000000E+00
409  4.0800000000000E+00  0.0000000000000E+00  0.0000000000000E+00
410  4.0900000000000E+00  0.0000000000000E+00  0.0000000000000E+00
411  4.1000000000000E+00  0.0000000000000E+00  0.0000000000000E+00
412  4.1100000000000E+00  0.0000000000000E+00  0.0000000000000E+00
413  4.1200000000000E+00  0.0000000000000E+00  0.0000000000000E+00
414  4.1300000000000E+00  0.0000000000000E+00  0.0000000000000E+00
415  4.1400000000000E+00  0.0000000000000E+00  0.0000000000000E+00
416  4.1500000000000E+00  0.0000000000000E+00  0.0000000000000E+00
417  4.1600000000000E+00  0.0000000000000E+00  0.0000000000000E+00
418  4.1700000000000E+00  0.0000000000000E+00  0.0000000000000E+00
419  4.1800000000000E+00  0.0000000000000E+00  0.0000000000000E+00
420  4.1900000000000E+00  0.0000000000000E+00  0.0000000000000E+00
421  4.2000000000000E+00  0.0000000000000E+00  0.0000000000000E+00
422  4.2100000000000E+00  0.0000000000000E+00  0.0000000000000E+00
423  4.2200000000000E+00  0.0000000000000E+00  0.0000000000000E+00
424  4.2300000000000E+00  0.0000000000000E+00  0.0000000000000E+00
425  4.2400000000000E+00  0.0000000000000E+00  0.0000000000000E+00
426  4.2500000000000E+00  0.0000000000000E+00  0.0000000000000E+00
427  4.2600000000000E+00  0.0000000000000E+00  0.0000000000000E+00
428  4.2700000000000E+00  0.0000000000000E+00  0.0000000000000E+00
429  4.2800000000000E+00  0.0000000000000E+00  0.0000000000000E+00
430  4.2900000000000E+00  0.0000000000000E+00  0.0000000000000E+00
431  4.3000000000000E+00  0.0000000000000E+00  0.0000000000000E+00
432  4.3100000000000E+00  0.0000000000000E+00  0.0000000000000E+00
433  4.3200000000000E+00  0.0000000000000E+00  0.0000000000000E+00
434  4.3300000000000E+00  0.0000000000000E+00  0.0000000000000E+00
435  4.3400000000000E+00  0.0000000000000E+00  0.0000000000000E+00
436  4.3500000000000E+00  0.0000000000000E+00  0.0000000000000E+00
437  4.3600000000000E+00  0.0000000000000E+00  0.0000000000000E+00
438  4.3700000000000E+00  0.0000000000000E+00  0.0000000000000E+00
439  4.3800000000000E+00  0.0000000000000E+00  0.0000000000000E+00
440  4.3900000000000E+00  0.0000000000000E+00  0.0000000000000E+00
441  4.4000000000000E+00  0.0000000000000E+00  0.0000000000000E+00
442  4.4100000000000E+00  0.0000000000000E+00  0.0000000000000E+00
443  4.4200000000000E+00  0.0000000000000E+00  0.0000000000000E+00