Br    ONCVPSP-3.2.3.1  r_core=   1.81012   1.51356   1.92136
35.0000      7.0000      170504    zatom,zion,pspd
8      11   2     4   600     0    pspcod,pspxc,lmax,lloc,mmax,r2well
5.99000000  8.00000000  0.00000000    rchrg fchrg qchrg
2     2     2     0     0    nproj
1     1           extension_switch
0                         8.4555490507487E+00  8.7846033533440E-01
1  0.0000000000000E+00 -2.0606810702262E-10  4.1346384649366E-10
2  1.0000000000000E-02  3.9351458826834E-02 -1.7751567685617E-02
3  2.0000000000000E-02  7.8658812251728E-02 -3.5438896619836E-02
4  3.0000000000000E-02  1.1787823389510E-01 -5.2998350839045E-02
5  4.0000000000000E-02  1.5696645145483E-01 -7.0367491674828E-02
6  5.0000000000000E-02  1.9588101388004E-01 -8.7485655807178E-02
7  6.0000000000000E-02  2.3458054685513E-01 -1.0429450890158E-01
8  7.0000000000000E-02  2.7302499294255E-01 -1.2073856718256E-01
9  8.0000000000000E-02  3.1117583293883E-01 -1.3676567970990E-01
10  9.0000000000000E-02  3.4899628525111E-01 -1.5232746463087E-01
11  1.0000000000000E-01  3.8645148039760E-01 -1.6737969327734E-01
12  1.1000000000000E-01  4.2350860807123E-01 -1.8188261665187E-01
13  1.2000000000000E-01  4.6013703457723E-01 -1.9580122959531E-01
14  1.3000000000000E-01  4.9630838885769E-01 -2.0910546873935E-01
15  1.4000000000000E-01  5.3199661574389E-01 -2.2177034121221E-01
16  1.5000000000000E-01  5.6717799552600E-01 -2.3377598197293E-01
17  1.6000000000000E-01  6.0183112939223E-01 -2.4510763858904E-01
18  1.7000000000000E-01  6.3593689076190E-01 -2.5575558323148E-01
19  1.8000000000000E-01  6.6947834301103E-01 -2.6571495262841E-01
20  1.9000000000000E-01  7.0244062456068E-01 -2.7498551768412E-01
21  2.0000000000000E-01  7.3481080276024E-01 -2.8357138541764E-01
22  2.1000000000000E-01  7.6657769844448E-01 -2.9148063679776E-01
23  2.2000000000000E-01  7.9773168346905E-01 -2.9872490493397E-01
24  2.3000000000000E-01  8.2826445392802E-01 -3.0531889891610E-01
25  2.4000000000000E-01  8.5816878212443E-01 -3.1127987936857E-01
26  2.5000000000000E-01  8.8743825069540E-01 -3.1662709248799E-01
27  2.6000000000000E-01  9.1606697258234E-01 -3.2138116995650E-01
28  2.7000000000000E-01  9.4404930078161E-01 -3.2556350265993E-01
29  2.8000000000000E-01  9.7137953200635E-01 -3.2919559658177E-01
30  2.9000000000000E-01  9.9805160853456E-01 -3.3229841958532E-01
31  3.0000000000000E-01  1.0240588226097E+00 -3.3489174803310E-01
32  3.1000000000000E-01  1.0493935277955E+00 -3.3699352231940E-01
33  3.2000000000000E-01  1.0740468616660E+00 -3.3861922040810E-01
34  3.3000000000000E-01  1.0980084841369E+00 -3.3978125837134E-01
35  3.4000000000000E-01  1.1212663356093E+00 -3.4048842671633E-01
36  3.5000000000000E-01  1.1438064189133E+00 -3.4074537096831E-01
37  3.6000000000000E-01  1.1656126087964E+00 -3.4055212455177E-01
38  3.7000000000000E-01  1.1866664924145E+00 -3.3990370148187E-01
39  3.8000000000000E-01  1.2069472439448E+00 -3.3878975575082E-01
40  3.9000000000000E-01  1.2264315360601E+00 -3.3719431357548E-01
41  4.0000000000000E-01  1.2450934905859E+00 -3.3509558387041E-01
42  4.1000000000000E-01  1.2629046702071E+00 -3.3246585143466E-01
43  4.2000000000000E-01  1.2798341126084E+00 -3.2927145639920E-01
44  4.3000000000000E-01  1.2958484079301E+00 -3.2547286248721E-01
45  4.4000000000000E-01  1.3109118198923E+00 -3.2102481560150E-01
46  4.5000000000000E-01  1.3249864504113E+00 -3.1587659318425E-01
47  4.6000000000000E-01  1.3380324469912E+00 -3.0997234370710E-01
48  4.7000000000000E-01  1.3500082516341E+00 -3.0325151455630E-01
49  4.8000000000000E-01  1.3608708894872E+00 -2.9564936549017E-01
50  4.9000000000000E-01  1.3705762949275E+00 -2.8709756377986E-01
51  5.0000000000000E-01  1.3790796722914E+00 -2.7752485610841E-01
52  5.1000000000000E-01  1.3863358879925E+00 -2.6685781131275E-01
53  5.2000000000000E-01  1.3922998903337E+00 -2.5502162711879E-01
54  5.3000000000000E-01  1.3969271529284E+00 -2.4194099315292E-01
55  5.4000000000000E-01  1.4001741372904E+00 -2.2754100172438E-01
56  5.5000000000000E-01  1.4019987698505E+00 -2.1174809717232E-01
57  5.6000000000000E-01  1.4023609284059E+00 -1.9449105396755E-01
58  5.7000000000000E-01  1.4012229328109E+00 -1.7570197325863E-01
59  5.8000000000000E-01  1.3985500345812E+00 -1.5531728716412E-01
60  5.9000000000000E-01  1.3943109000042E+00 -1.3327875983987E-01
61  6.0000000000000E-01  1.3884780813332E+00 -1.0953447419802E-01
62  6.1000000000000E-01  1.3810284706880E+00 -8.4039793126051E-02
63  6.2000000000000E-01  1.3719437313951E+00 -5.6758284147534E-02
64  6.3000000000000E-01  1.3612107016662E+00 -2.7662596687555E-02
65  6.4000000000000E-01  1.3488217657495E+00  3.2647185551033E-03
66  6.5000000000000E-01  1.3347751879678E+00  3.6030458165135E-02
67  6.6000000000000E-01  1.3190754054075E+00  7.0630091956857E-02
68  6.7000000000000E-01  1.3017332754072E+00  1.0704717508518E-01
69  6.8000000000000E-01  1.2827662744403E+00  1.4525285431001E-01
70  6.9000000000000E-01  1.2621986454636E+00  1.8520547551952E-01
71  7.0000000000000E-01  1.2400614913225E+00  2.2685029865201E-01
72  7.1000000000000E-01  1.2163928123528E+00  2.7011932511763E-01
73  7.2000000000000E-01  1.1912374868900E+00  3.1493124171359E-01
74  7.3000000000000E-01  1.1646471939897E+00  3.6119148387236E-01
75  7.4000000000000E-01  1.1366802782630E+00  4.0879241988811E-01
76  7.5000000000000E-01  1.1074015573405E+00  4.5761365654579E-01
77  7.6000000000000E-01  1.0768820730769E+00  5.0752246534266E-01
78  7.7000000000000E-01  1.0451987882074E+00  5.5837432726510E-01
79  7.8000000000000E-01  1.0124342307427E+00  6.1001359285888E-01
80  7.9000000000000E-01  9.7867608894302E-01  6.6227425314644E-01
81  8.0000000000000E-01  9.4401676023934E-01  7.1498081579446E-01
82  8.1000000000000E-01  9.0855285795572E-01  7.6794927983964E-01
83  8.2000000000000E-01  8.7238468013760E-01  8.2098820125141E-01
84  8.3000000000000E-01  8.3561564519071E-01  8.7389984065757E-01
85  8.4000000000000E-01  7.9835169938587E-01  9.2648138369362E-01
86  8.5000000000000E-01  7.6070070157987E-01  9.7852622366845E-01
87  8.6000000000000E-01  7.2277179073898E-01  1.0298252955752E+00
88  8.7000000000000E-01  6.8467474202676E-01  1.0801684499263E+00
89  8.8000000000000E-01  6.4651931732913E-01  1.1293458544568E+00
90  8.9000000000000E-01  6.0841461613738E-01  1.1771494114343E+00
91  9.0000000000000E-01  5.7046843269179E-01  1.2233741781244E+00
92  9.1000000000000E-01  5.3278662520604E-01  1.2678197779081E+00
93  9.2000000000000E-01  4.9547250284705E-01  1.3102917896187E+00
94  9.3000000000000E-01  4.5862623593697E-01  1.3506031028614E+00
95  9.4000000000000E-01  4.2234429457763E-01  1.3885752274043E+00
96  9.5000000000000E-01  3.8671892057576E-01  1.4240395451695E+00
97  9.6000000000000E-01  3.5183763717131E-01  1.4568384939127E+00
98  9.7000000000000E-01  3.1778280065077E-01  1.4868266723473E+00
99  9.8000000000000E-01  2.8463119746795E-01  1.5138718572219E+00
100  9.9000000000000E-01  2.5245368998547E-01  1.5378559237397E+00
101  1.0000000000000E+00  2.2131491342726E-01  1.5586756616303E+00
102  1.0100000000000E+00  1.9127302607462E-01  1.5762434802027E+00
103  1.0200000000000E+00  1.6237951416824E-01  1.5904879967727E+00
104  1.0300000000000E+00  1.3467905238723E-01  1.6013545039956E+00
105  1.0400000000000E+00  1.0820942020378E-01  1.6088053127572E+00
106  1.0500000000000E+00  8.3001473824995E-02  1.6128199684603E+00
107  1.0600000000000E+00  5.9079172845691E-02  1.6133953397583E+00
108  1.0700000000000E+00  3.6459660199297E-02  1.6105455799267E+00
109  1.0800000000000E+00  1.5153393445039E-02  1.6043019622667E+00
110  1.0900000000000E+00 -4.8356750645791E-03  1.5947125920492E+00
111  1.1000000000000E+00 -2.3509872046933E-02  1.5818419985655E+00
112  1.1100000000000E+00 -4.0877534563401E-02  1.5657706119987E+00
113  1.1200000000000E+00 -5.6952702425691E-02  1.5465941307071E+00
114  1.1300000000000E+00 -7.1754775823791E-02  1.5244227855244E+00
115  1.1400000000000E+00 -8.5308142489908E-02  1.4993805083204E+00
116  1.1500000000000E+00 -9.7641779018744E-02  1.4716040130623E+00
117  1.1600000000000E+00 -1.0878883107091E-01  1.4412417980687E+00
118  1.1700000000000E+00 -1.1878617730590E-01  1.4084530787762E+00
119  1.1800000000000E+00 -1.2767398195741E-01  1.3734066606900E+00
120  1.1900000000000E+00 -1.3549524095043E-01  1.3362797626655E+00
121  1.2000000000000E+00 -1.4229532635857E-01  1.2972568007509E+00
122  1.2100000000000E+00 -1.4812153391147E-01  1.2565281429670E+00
123  1.2200000000000E+00 -1.5302263809426E-01  1.2142888454669E+00
124  1.2300000000000E+00 -1.5704845908353E-01  1.1707373803272E+00
125  1.2400000000000E+00 -1.6024944549600E-01  1.1260743649835E+00
126  1.2500000000000E+00 -1.6267627675445E-01  1.0805013032391E+00
127  1.2600000000000E+00 -1.6437948826877E-01  1.0342193470910E+00
128  1.2700000000000E+00 -1.6540912230160E-01  9.8742808813743E-01
129  1.2800000000000E+00 -1.6581440726058E-01  9.4032438725426E-01
130  1.2900000000000E+00 -1.6564346722150E-01  8.9310124988890E-01
131  1.3000000000000E+00 -1.6494306326071E-01  8.4594675388600E-01
132  1.3100000000000E+00 -1.6375836801675E-01  7.9904303662432E-01
133  1.3200000000000E+00 -1.6213277374617E-01  7.5256534630637E-01
134  1.3300000000000E+00 -1.6010773417935E-01  7.0668116221996E-01
135  1.3400000000000E+00 -1.5772264008851E-01  6.6154938822991E-01
136  1.3500000000000E+00 -1.5501472740004E-01  6.1731962162322E-01
137  1.3600000000000E+00 -1.5201901704705E-01  5.7413150010623E-01
138  1.3700000000000E+00 -1.4876828490003E-01  5.3211412816332E-01
139  1.3800000000000E+00 -1.4529305956249E-01  4.9138558248972E-01
140  1.3900000000000E+00 -1.4162164626745E-01  4.5205249746919E-01
141  1.4000000000000E+00 -1.3778017380392E-01  4.1420972841527E-01
142  1.4100000000000E+00 -1.3379266193734E-01  3.7794009134160E-01
143  1.4200000000000E+00 -1.2968110627838E-01  3.4331417715664E-01
144  1.4300000000000E+00 -1.2546557728036E-01  3.1039023630844E-01
145  1.4400000000000E+00 -1.2116433028284E-01  2.7921413157253E-01
146  1.4500000000000E+00 -1.1679392306845E-01  2.4981935392509E-01
147  1.4600000000000E+00 -1.1236933780321E-01  2.2222709775932E-01
148  1.4700000000000E+00 -1.0790410298703E-01  1.9644638639906E-01
149  1.4800000000000E+00 -1.0341041618275E-01  1.7247426226686E-01
150  1.4900000000000E+00 -9.8899256414025E-02  1.5029599445938E-01
151  1.5000000000000E+00 -9.4380517787431E-02  1.2988548385896E-01
152  1.5100000000000E+00 -8.9863016344131E-02  1.1120507789034E-01
153  1.5200000000000E+00 -8.5354669190358E-02  9.4206410170885E-02
154  1.5300000000000E+00 -8.0862851466815E-02  7.8832357127334E-02
155  1.5400000000000E+00 -7.6394722260502E-02  6.5018762067018E-02
156  1.5500000000000E+00 -7.1957640699684E-02  5.2696670175989E-02
157  1.5600000000000E+00 -6.7559277857035E-02  4.1792995879233E-02
158  1.5700000000000E+00 -6.3207654683981E-02  3.2230839179488E-02
159  1.5800000000000E+00 -5.8911253070544E-02  2.3930384398051E-02
160  1.5900000000000E+00 -5.4679054918980E-02  1.6809486917252E-02
161  1.6000000000000E+00 -5.0520573790393E-02  1.0784343436197E-02
162  1.6100000000000E+00 -4.6445859612527E-02  5.7701137682309E-03
163  1.6200000000000E+00 -4.2465480856677E-02  1.6815223431154E-03
164  1.6300000000000E+00 -3.8590486299577E-02 -1.5665655266017E-03
165  1.6400000000000E+00 -3.4832346181790E-02 -4.0585972693878E-03
166  1.6500000000000E+00 -3.1202875671468E-02 -5.8778164909481E-03
167  1.6600000000000E+00 -2.7714141627111E-02 -7.1057789728159E-03
168  1.6700000000000E+00 -2.4378355589408E-02 -7.8219010444734E-03
169  1.6800000000000E+00 -2.1207754762824E-02 -8.1030416599804E-03
170  1.6900000000000E+00 -1.8214474039857E-02 -8.0231176902310E-03
171  1.7000000000000E+00 -1.5410411192505E-02 -7.6527528599289E-03
172  1.7100000000000E+00 -1.2807088413278E-02 -7.0589593947145E-03
173  1.7200000000000E+00 -1.0415512416549E-02 -6.3048523402660E-03
174  1.7300000000000E+00 -8.2460362272359E-03 -5.4493951948556E-03
175  1.7400000000000E+00 -6.3082249049986E-03 -4.5471765924246E-03
176  1.7500000000000E+00 -4.6111578018016E-03 -3.6492514187668E-03
177  1.7600000000000E+00 -3.1620303552189E-03 -2.7998960714642E-03
178  1.7700000000000E+00 -1.9645716875737E-03 -2.0308414033397E-03
179  1.7800000000000E+00 -1.0258963953090E-03 -1.3822645001560E-03
180  1.7900000000000E+00 -3.5964109844273E-04 -9.2758028621615E-04
181  1.8000000000000E+00  3.6369521021139E-05 -6.8776677171434E-04
182  1.8100000000000E+00  1.8560541571713E-04 -5.1472332310606E-04
183  1.8200000000000E+00  1.3401099095794E-04 -2.6132635495368E-04
184  1.8300000000000E+00  1.8664610410552E-05 -3.1820004765778E-05
185  1.8400000000000E+00 -2.8920001812307E-05  4.6591432331058E-05
186  1.8500000000000E+00 -1.2828757420931E-05  1.9652340782362E-05
187  1.8600000000000E+00  5.1840111336081E-06 -9.2479745832712E-06
188  1.8700000000000E+00  4.3731700549669E-06 -7.6224173463766E-06
189  1.8800000000000E+00 -3.0736699222388E-07  8.4664643727063E-07
190  1.8900000000000E+00 -4.7625038300390E-07  1.3118379664051E-06
191  1.9000000000000E+00  0.0000000000000E+00  0.0000000000000E+00
192  1.9100000000000E+00  0.0000000000000E+00  0.0000000000000E+00
193  1.9200000000000E+00  0.0000000000000E+00  0.0000000000000E+00
194  1.9300000000000E+00  0.0000000000000E+00  0.0000000000000E+00
195  1.9400000000000E+00  0.0000000000000E+00  0.0000000000000E+00
196  1.9500000000000E+00  0.0000000000000E+00  0.0000000000000E+00
197  1.9600000000000E+00  0.0000000000000E+00  0.0000000000000E+00
198  1.9700000000000E+00  0.0000000000000E+00  0.0000000000000E+00
199  1.9800000000000E+00  0.0000000000000E+00  0.0000000000000E+00
200  1.9900000000000E+00  0.0000000000000E+00  0.0000000000000E+00
201  2.0000000000000E+00  0.0000000000000E+00  0.0000000000000E+00
202  2.0100000000000E+00  0.0000000000000E+00  0.0000000000000E+00
203  2.0200000000000E+00  0.0000000000000E+00  0.0000000000000E+00
204  2.0300000000000E+00  0.0000000000000E+00  0.0000000000000E+00
205  2.0400000000000E+00  0.0000000000000E+00  0.0000000000000E+00
206  2.0500000000000E+00  0.0000000000000E+00  0.0000000000000E+00
207  2.0600000000000E+00  0.0000000000000E+00  0.0000000000000E+00
208  2.0700000000000E+00  0.0000000000000E+00  0.0000000000000E+00
209  2.0800000000000E+00  0.0000000000000E+00  0.0000000000000E+00
210  2.0900000000000E+00  0.0000000000000E+00  0.0000000000000E+00
211  2.1000000000000E+00  0.0000000000000E+00  0.0000000000000E+00
212  2.1100000000000E+00  0.0000000000000E+00  0.0000000000000E+00
213  2.1200000000000E+00  0.0000000000000E+00  0.0000000000000E+00
214  2.1300000000000E+00  0.0000000000000E+00  0.0000000000000E+00
215  2.1400000000000E+00  0.0000000000000E+00  0.0000000000000E+00
216  2.1500000000000E+00  0.0000000000000E+00  0.0000000000000E+00
217  2.1600000000000E+00  0.0000000000000E+00  0.0000000000000E+00
218  2.1700000000000E+00  0.0000000000000E+00  0.0000000000000E+00
219  2.1800000000000E+00  0.0000000000000E+00  0.0000000000000E+00
220  2.1900000000000E+00  0.0000000000000E+00  0.0000000000000E+00
221  2.2000000000000E+00  0.0000000000000E+00  0.0000000000000E+00
222  2.2100000000000E+00  0.0000000000000E+00  0.0000000000000E+00
223  2.2200000000000E+00  0.0000000000000E+00  0.0000000000000E+00
224  2.2300000000000E+00  0.0000000000000E+00  0.0000000000000E+00
225  2.2400000000000E+00  0.0000000000000E+00  0.0000000000000E+00
226  2.2500000000000E+00  0.0000000000000E+00  0.0000000000000E+00
227  2.2600000000000E+00  0.0000000000000E+00  0.0000000000000E+00
228  2.2700000000000E+00  0.0000000000000E+00  0.0000000000000E+00
229  2.2800000000000E+00  0.0000000000000E+00  0.0000000000000E+00
230  2.2900000000000E+00  0.0000000000000E+00  0.0000000000000E+00
231  2.3000000000000E+00  0.0000000000000E+00  0.0000000000000E+00
232  2.3100000000000E+00  0.0000000000000E+00  0.0000000000000E+00
233  2.3200000000000E+00  0.0000000000000E+00  0.0000000000000E+00
234  2.3300000000000E+00  0.0000000000000E+00  0.0000000000000E+00
235  2.3400000000000E+00  0.0000000000000E+00  0.0000000000000E+00
236  2.3500000000000E+00  0.0000000000000E+00  0.0000000000000E+00
237  2.3600000000000E+00  0.0000000000000E+00  0.0000000000000E+00
238  2.3700000000000E+00  0.0000000000000E+00  0.0000000000000E+00
239  2.3800000000000E+00  0.0000000000000E+00  0.0000000000000E+00
240  2.3900000000000E+00  0.0000000000000E+00  0.0000000000000E+00
241  2.4000000000000E+00  0.0000000000000E+00  0.0000000000000E+00
242  2.4100000000000E+00  0.0000000000000E+00  0.0000000000000E+00
243  2.4200000000000E+00  0.0000000000000E+00  0.0000000000000E+00
244  2.4300000000000E+00  0.0000000000000E+00  0.0000000000000E+00
245  2.4400000000000E+00  0.0000000000000E+00  0.0000000000000E+00
246  2.4500000000000E+00  0.0000000000000E+00  0.0000000000000E+00
247  2.4600000000000E+00  0.0000000000000E+00  0.0000000000000E+00
248  2.4700000000000E+00  0.0000000000000E+00  0.0000000000000E+00
249  2.4800000000000E+00  0.0000000000000E+00  0.0000000000000E+00
250  2.4900000000000E+00  0.0000000000000E+00  0.0000000000000E+00
251  2.5000000000000E+00  0.0000000000000E+00  0.0000000000000E+00
252  2.5100000000000E+00  0.0000000000000E+00  0.0000000000000E+00
253  2.5200000000000E+00  0.0000000000000E+00  0.0000000000000E+00
254  2.5300000000000E+00  0.0000000000000E+00  0.0000000000000E+00
255  2.5400000000000E+00  0.0000000000000E+00  0.0000000000000E+00
256  2.5500000000000E+00  0.0000000000000E+00  0.0000000000000E+00
257  2.5600000000000E+00  0.0000000000000E+00  0.0000000000000E+00
258  2.5700000000000E+00  0.0000000000000E+00  0.0000000000000E+00
259  2.5800000000000E+00  0.0000000000000E+00  0.0000000000000E+00
260  2.5900000000000E+00  0.0000000000000E+00  0.0000000000000E+00
261  2.6000000000000E+00  0.0000000000000E+00  0.0000000000000E+00
262  2.6100000000000E+00  0.0000000000000E+00  0.0000000000000E+00
263  2.6200000000000E+00  0.0000000000000E+00  0.0000000000000E+00
264  2.6300000000000E+00  0.0000000000000E+00  0.0000000000000E+00
265  2.6400000000000E+00  0.0000000000000E+00  0.0000000000000E+00
266  2.6500000000000E+00  0.0000000000000E+00  0.0000000000000E+00
267  2.6600000000000E+00  0.0000000000000E+00  0.0000000000000E+00
268  2.6700000000000E+00  0.0000000000000E+00  0.0000000000000E+00
269  2.6800000000000E+00  0.0000000000000E+00  0.0000000000000E+00
270  2.6900000000000E+00  0.0000000000000E+00  0.0000000000000E+00
271  2.7000000000000E+00  0.0000000000000E+00  0.0000000000000E+00
272  2.7100000000000E+00  0.0000000000000E+00  0.0000000000000E+00
273  2.7200000000000E+00  0.0000000000000E+00  0.0000000000000E+00
274  2.7300000000000E+00  0.0000000000000E+00  0.0000000000000E+00
275  2.7400000000000E+00  0.0000000000000E+00  0.0000000000000E+00
276  2.7500000000000E+00  0.0000000000000E+00  0.0000000000000E+00
277  2.7600000000000E+00  0.0000000000000E+00  0.0000000000000E+00
278  2.7700000000000E+00  0.0000000000000E+00  0.0000000000000E+00
279  2.7800000000000E+00  0.0000000000000E+00  0.0000000000000E+00
280  2.7900000000000E+00  0.0000000000000E+00  0.0000000000000E+00
281  2.8000000000000E+00  0.0000000000000E+00  0.0000000000000E+00
282  2.8100000000000E+00  0.0000000000000E+00  0.0000000000000E+00
283  2.8200000000000E+00  0.0000000000000E+00  0.0000000000000E+00
284  2.8300000000000E+00  0.0000000000000E+00  0.0000000000000E+00
285  2.8400000000000E+00  0.0000000000000E+00  0.0000000000000E+00
286  2.8500000000000E+00  0.0000000000000E+00  0.0000000000000E+00
287  2.8600000000000E+00  0.0000000000000E+00  0.0000000000000E+00
288  2.8700000000000E+00  0.0000000000000E+00  0.0000000000000E+00
289  2.8800000000000E+00  0.0000000000000E+00  0.0000000000000E+00
290  2.8900000000000E+00  0.0000000000000E+00  0.0000000000000E+00
291  2.9000000000000E+00  0.0000000000000E+00  0.0000000000000E+00
292  2.9100000000000E+00  0.0000000000000E+00  0.0000000000000E+00
293  2.9200000000000E+00  0.0000000000000E+00  0.0000000000000E+00
294  2.9300000000000E+00  0.0000000000000E+00  0.0000000000000E+00
295  2.9400000000000E+00  0.0000000000000E+00  0.0000000000000E+00
296  2.9500000000000E+00  0.0000000000000E+00  0.0000000000000E+00
297  2.9600000000000E+00  0.0000000000000E+00  0.0000000000000E+00
298  2.9700000000000E+00  0.0000000000000E+00  0.0000000000000E+00
299  2.9800000000000E+00  0.0000000000000E+00  0.0000000000000E+00
300  2.9900000000000E+00  0.0000000000000E+00  0.0000000000000E+00
301  3.0000000000000E+00  0.0000000000000E+00  0.0000000000000E+00
302  3.0100000000000E+00  0.0000000000000E+00  0.0000000000000E+00
303  3.0200000000000E+00  0.0000000000000E+00  0.0000000000000E+00
304  3.0300000000000E+00  0.0000000000000E+00  0.0000000000000E+00
305  3.0400000000000E+00  0.0000000000000E+00  0.0000000000000E+00
306  3.0500000000000E+00  0.0000000000000E+00  0.0000000000000E+00
307  3.0600000000000E+00  0.0000000000000E+00  0.0000000000000E+00
308  3.0700000000000E+00  0.0000000000000E+00  0.0000000000000E+00
309  3.0800000000000E+00  0.0000000000000E+00  0.0000000000000E+00
310  3.0900000000000E+00  0.0000000000000E+00  0.0000000000000E+00
311  3.1000000000000E+00  0.0000000000000E+00  0.0000000000000E+00
312  3.1100000000000E+00  0.0000000000000E+00  0.0000000000000E+00
313  3.1200000000000E+00  0.0000000000000E+00  0.0000000000000E+00
314  3.1300000000000E+00  0.0000000000000E+00  0.0000000000000E+00
315  3.1400000000000E+00  0.0000000000000E+00  0.0000000000000E+00
316  3.1500000000000E+00  0.0000000000000E+00  0.0000000000000E+00
317  3.1600000000000E+00  0.0000000000000E+00  0.0000000000000E+00
318  3.1700000000000E+00  0.0000000000000E+00  0.0000000000000E+00
319  3.1800000000000E+00  0.0000000000000E+00  0.0000000000000E+00
320  3.1900000000000E+00  0.0000000000000E+00  0.0000000000000E+00
321  3.2000000000000E+00  0.0000000000000E+00  0.0000000000000E+00
322  3.2100000000000E+00  0.0000000000000E+00  0.0000000000000E+00
323  3.2200000000000E+00  0.0000000000000E+00  0.0000000000000E+00
324  3.2300000000000E+00  0.0000000000000E+00  0.0000000000000E+00
325  3.2400000000000E+00  0.0000000000000E+00  0.0000000000000E+00
326  3.2500000000000E+00  0.0000000000000E+00  0.0000000000000E+00
327  3.2600000000000E+00  0.0000000000000E+00  0.0000000000000E+00
328  3.2700000000000E+00  0.0000000000000E+00  0.0000000000000E+00
329  3.2800000000000E+00  0.0000000000000E+00  0.0000000000000E+00
330  3.2900000000000E+00  0.0000000000000E+00  0.0000000000000E+00
331  3.3000000000000E+00  0.0000000000000E+00  0.0000000000000E+00
332  3.3100000000000E+00  0.0000000000000E+00  0.0000000000000E+00
333  3.3200000000000E+00  0.0000000000000E+00  0.0000000000000E+00
334  3.3300000000000E+00  0.0000000000000E+00  0.0000000000000E+00
335  3.3400000000000E+00  0.0000000000000E+00  0.0000000000000E+00
336  3.3500000000000E+00  0.0000000000000E+00  0.0000000000000E+00
337  3.3600000000000E+00  0.0000000000000E+00  0.0000000000000E+00
338  3.3700000000000E+00  0.0000000000000E+00  0.0000000000000E+00
339  3.3800000000000E+00  0.0000000000000E+00  0.0000000000000E+00
340  3.3900000000000E+00  0.0000000000000E+00  0.0000000000000E+00
341  3.4000000000000E+00  0.0000000000000E+00  0.0000000000000E+00
342  3.4100000000000E+00  0.0000000000000E+00  0.0000000000000E+00
343  3.4200000000000E+00  0.0000000000000E+00  0.0000000000000E+00
344  3.4300000000000E+00  0.0000000000000E+00  0.0000000000000E+00
345  3.4400000000000E+00  0.0000000000000E+00  0.0000000000000E+00
346  3.4500000000000E+00  0.0000000000000E+00  0.0000000000000E+00
347  3.4600000000000E+00  0.0000000000000E+00  0.0000000000000E+00
348  3.4700000000000E+00  0.0000000000000E+00  0.0000000000000E+00
349  3.4800000000000E+00  0.0000000000000E+00  0.0000000000000E+00
350  3.4900000000000E+00  0.0000000000000E+00  0.0000000000000E+00
351  3.5000000000000E+00  0.0000000000000E+00  0.0000000000000E+00
352  3.5100000000000E+00  0.0000000000000E+00  0.0000000000000E+00
353  3.5200000000000E+00  0.0000000000000E+00  0.0000000000000E+00
354  3.5300000000000E+00  0.0000000000000E+00  0.0000000000000E+00
355  3.5400000000000E+00  0.0000000000000E+00  0.0000000000000E+00
356  3.5500000000000E+00  0.0000000000000E+00  0.0000000000000E+00
357  3.5600000000000E+00  0.0000000000000E+00  0.0000000000000E+00
358  3.5700000000000E+00  0.0000000000000E+00  0.0000000000000E+00
359  3.5800000000000E+00  0.0000000000000E+00  0.0000000000000E+00
360  3.5900000000000E+00  0.0000000000000E+00  0.0000000000000E+00
361  3.6000000000000E+00  0.0000000000000E+00  0.0000000000000E+00
362  3.6100000000000E+00  0.0000000000000E+00  0.0000000000000E+00
363  3.6200000000000E+00  0.0000000000000E+00  0.0000000000000E+00
364  3.6300000000000E+00  0.0000000000000E+00  0.0000000000000E+00
365  3.6400000000000E+00  0.0000000000000E+00  0.0000000000000E+00
366  3.6500000000000E+00  0.0000000000000E+00  0.0000000000000E+00
367  3.6600000000000E+00  0.0000000000000E+00  0.0000000000000E+00
368  3.6700000000000E+00  0.0000000000000E+00  0.0000000000000E+00
369  3.6800000000000E+00  0.0000000000000E+00  0.0000000000000E+00
370  3.6900000000000E+00  0.0000000000000E+00  0.0000000000000E+00
371  3.7000000000000E+00  0.0000000000000E+00  0.0000000000000E+00
372  3.7100000000000E+00  0.0000000000000E+00  0.0000000000000E+00
373  3.7200000000000E+00  0.0000000000000E+00  0.0000000000000E+00
374  3.7300000000000E+00  0.0000000000000E+00  0.0000000000000E+00
375  3.7400000000000E+00  0.0000000000000E+00  0.0000000000000E+00
376  3.7500000000000E+00  0.0000000000000E+00  0.0000000000000E+00
377  3.7600000000000E+00  0.0000000000000E+00  0.0000000000000E+00
378  3.7700000000000E+00  0.0000000000000E+00  0.0000000000000E+00
379  3.7800000000000E+00  0.0000000000000E+00  0.0000000000000E+00
380  3.7900000000000E+00  0.0000000000000E+00  0.0000000000000E+00
381  3.8000000000000E+00  0.0000000000000E+00  0.0000000000000E+00
382  3.8100000000000E+00  0.0000000000000E+00  0.0000000000000E+00
383  3.8200000000000E+00  0.0000000000000E+00  0.0000000000000E+00
384  3.8300000000000E+00  0.0000000000000E+00  0.0000000000000E+00
385  3.8400000000000E+00  0.0000000000000E+00  0.0000000000000E+00
386  3.8500000000000E+00  0.0000000000000E+00  0.0000000000000E+00
387  3.8600000000000E+00  0.0000000000000E+00  0.0000000000000E+00
388  3.8700000000000E+00  0.0000000000000E+00  0.0000000000000E+00
389  3.8800000000000E+00  0.0000000000000E+00  0.0000000000000E+00
390  3.8900000000000E+00  0.0000000000000E+00  0.0000000000000E+00
391  3.9000000000000E+00  0.0000000000000E+00  0.0000000000000E+00
392  3.9100000000000E+00  0.0000000000000E+00  0.0000000000000E+00
393  3.9200000000000E+00  0.0000000000000E+00  0.0000000000000E+00
394  3.9300000000000E+00  0.0000000000000E+00  0.0000000000000E+00
395  3.9400000000000E+00  0.0000000000000E+00  0.0000000000000E+00
396  3.9500000000000E+00  0.0000000000000E+00  0.0000000000000E+00
397  3.9600000000000E+00  0.0000000000000E+00  0.0000000000000E+00
398  3.9700000000000E+00  0.0000000000000E+00  0.0000000000000E+00
399  3.9800000000000E+00  0.0000000000000E+00  0.0000000000000E+00
400  3.9900000000000E+00  0.0000000000000E+00  0.0000000000000E+00
401  4.0000000000000E+00  0.0000000000000E+00  0.0000000000000E+00
402  4.0100000000000E+00  0.0000000000000E+00  0.0000000000000E+00
403  4.0200000000000E+00  0.0000000000000E+00  0.0000000000000E+00
404  4.0300000000000E+00  0.0000000000000E+00  0.0000000000000E+00
405  4.0400000000000E+00  0.0000000000000E+00  0.0000000000000E+00
406  4.0500000000000E+00  0.0000000000000E+00  0.0000000000000E+00
407  4.0600000000000E+00  0.0000000000000E+00  0.0000000000000E+00
408  4.0700000000000E+00  0.0000000000000E+00  0.0000000000000E+00
409  4.0800000000000E+00  0.0000000000000E+00  0.0000000000000E+00
410  4.0900000000000E+00  0.0000000000000E+00  0.0000000000000E+00
411  4.1000000000000E+00  0.0000000000000E+00  0.0000000000000E+00
412  4.1100000000000E+00  0.0000000000000E+00  0.0000000000000E+00
413  4.1200000000000E+00  0.0000000000000E+00  0.0000000000000E+00
414  4.1300000000000E+00  0.0000000000000E+00  0.0000000000000E+00
415  4.1400000000000E+00  0.0000000000000E+00  0.0000000000000E+00
416  4.1500000000000E+00  0.0000000000000E+00  0.0000000000000E+00
417  4.1600000000000E+00  0.0000000000000E+00  0.0000000000000E+00
418  4.1700000000000E+00  0.0000000000000E+00  0.0000000000000E+00
419  4.1800000000000E+00  0.0000000000000E+00  0.0000000000000E+00
420  4.1900000000000E+00  0.0000000000000E+00  0.0000000000000E+00
421  4.2000000000000E+00  0.0000000000000E+00  0.0000000000000E+00
422  4.2100000000000E+00  0.0000000000000E+00  0.0000000000000E+00
423  4.2200000000000E+00  0.0000000000000E+00  0.0000000000000E+00
424  4.2300000000000E+00  0.0000000000000E+00  0.0000000000000E+00
425  4.2400000000000E+00  0.0000000000000E+00  0.0000000000000E+00
426  4.2500000000000E+00  0.0000000000000E+00  0.0000000000000E+00
427  4.2600000000000E+00  0.0000000000000E+00  0.0000000000000E+00
428  4.2700000000000E+00  0.0000000000000E+00  0.0000000000000E+00
429  4.2800000000000E+00  0.0000000000000E+00  0.0000000000000E+00
430  4.2900000000000E+00  0.0000000000000E+00  0.0000000000000E+00
431  4.3000000000000E+00  0.0000000000000E+00  0.0000000000000E+00
432  4.3100000000000E+00  0.0000000000000E+00  0.0000000000000E+00
433  4.3200000000000E+00  0.0000000000000E+00  0.0000000000000E+00
434  4.3300000000000E+00  0.0000000000000E+00  0.0000000000000E+00
435  4.3400000000000E+00  0.0000000000000E+00  0.0000000000000E+00
436  4.3500000000000E+00  0.0000000000000E+00  0.0000000000000E+00
437  4.3600000000000E+00  0.0000000000000E+00  0.0000000000000E+00
438  4.3700000000000E+00  0.0000000000000E+00  0.0000000000000E+00
439  4.3800000000000E+00  0.0000000000000E+00  0.0000000000000E+00
440  4.3900000000000E+00  0.0000000000000E+00  0.0000000000000E+00
441  4.4000000000000E+00  0.0000000000000E+00  0.0000000000000E+00
442  4.4100000000000E+00  0.0000000000000E+00  0.0000000000000E+00
443  4.4200000000000E+00  0.0000000000000E+00  0.0000000000000E+00