Sr    ONCVPSP-3.2.3.1  r_core=   1.66721   1.31335   1.51547
38.0000     10.0000      170504    zatom,zion,pspd
8      11   2     4   600     0    pspcod,pspxc,lmax,lloc,mmax,r2well
5.99000000  6.00000000  0.00000000    rchrg fchrg qchrg
2     2     2     0     0    nproj
1     1           extension_switch
0                         9.9511265734164E+00  1.0278242104916E+00
1  0.0000000000000E+00 -7.3970662928247E-11  3.8919023559458E-10
2  1.0000000000000E-02  4.3412212219542E-02 -2.5710456860215E-02
3  2.0000000000000E-02  8.6784122104553E-02 -5.1316374318121E-02
4  3.0000000000000E-02  1.3007551826815E-01 -7.6713980828145E-02
5  4.0000000000000E-02  1.7324636987834E-01 -1.0180103179491E-01
6  5.0000000000000E-02  2.1625691360334E-01 -1.2647755124002E-01
7  6.0000000000000E-02  2.5906773661163E-01 -1.5064654757747E-01
8  7.0000000000000E-02  3.0163985439912E-01 -1.7421469532852E-01
9  8.0000000000000E-02  3.4393478229034E-01 -1.9709297499593E-01
10  9.0000000000000E-02  3.8591459955101E-01 -2.1919726379648E-01
11  1.0000000000000E-01  4.2754200515619E-01 -2.4044887051407E-01
12  1.1000000000000E-01  4.6878036437978E-01 -2.6077500837795E-01
13  1.2000000000000E-01  5.0959374550532E-01 -2.8010920058505E-01
14  1.3000000000000E-01  5.4994694610463E-01 -2.9839161386406E-01
15  1.4000000000000E-01  5.8980550848690E-01 -3.1556931631417E-01
16  1.5000000000000E-01  6.2913572408501E-01 -3.3159645663354E-01
17  1.6000000000000E-01  6.6790462671671E-01 -3.4643436277382E-01
18  1.7000000000000E-01  7.0607997483240E-01 -3.6005155900488E-01
19  1.8000000000000E-01  7.4363022303835E-01 -3.7242370134101E-01
20  1.9000000000000E-01  7.8052448336029E-01 -3.8353343225380E-01
21  2.0000000000000E-01  8.1673247688661E-01 -3.9337015656722E-01
22  2.1000000000000E-01  8.5222447659995E-01 -4.0192974138748E-01
23  2.2000000000000E-01  8.8697124236875E-01 -4.0921414385179E-01
24  2.3000000000000E-01  9.2094394922451E-01 -4.1523097137699E-01
25  2.4000000000000E-01  9.5411411019325E-01 -4.1999297994006E-01
26  2.5000000000000E-01  9.8645349508021E-01 -4.2351751671814E-01
27  2.6000000000000E-01  1.0179340467219E+00 -4.2582591414644E-01
28  2.7000000000000E-01  1.0485277963185E+00 -4.2694284310965E-01
29  2.8000000000000E-01  1.0782067795404E+00 -4.2689563355723E-01
30  2.9000000000000E-01  1.1069429551641E+00 -4.2571357131929E-01
31  3.0000000000000E-01  1.1347081280316E+00 -4.2342718028923E-01
32  3.1000000000000E-01  1.1614738781491E+00 -4.2006749942804E-01
33  3.2000000000000E-01  1.1872114977329E+00 -4.1566536422795E-01
34  3.3000000000000E-01  1.2118919379866E+00 -4.1025070234494E-01
35  3.4000000000000E-01  1.2354857673421E+00 -4.0385185307163E-01
36  3.5000000000000E-01  1.2579631428213E+00 -3.9649492016879E-01
37  3.6000000000000E-01  1.2792937960803E+00 -3.8820316730845E-01
38  3.7000000000000E-01  1.2994470355777E+00 -3.7899646500372E-01
39  3.8000000000000E-01  1.3183917661641E+00 -3.6889079741331E-01
40  3.9000000000000E-01  1.3360965272290E+00 -3.5789783681536E-01
41  4.0000000000000E-01  1.3525295503578E+00 -3.4602459285077E-01
42  4.1000000000000E-01  1.3676588372498E+00 -3.3327314284744E-01
43  4.2000000000000E-01  1.3814522584310E+00 -3.1964044865914E-01
44  4.3000000000000E-01  1.3938776730630E+00 -3.0511826449691E-01
45  4.4000000000000E-01  1.4049030699050E+00 -2.8969313920371E-01
46  4.5000000000000E-01  1.4144967292318E+00 -2.7334651533714E-01
47  4.6000000000000E-01  1.4226274052491E+00 -2.5605492628896E-01
48  4.7000000000000E-01  1.4292645282820E+00 -2.3779029149911E-01
49  4.8000000000000E-01  1.4343784257427E+00 -2.1852030862388E-01
50  4.9000000000000E-01  1.4379405606205E+00 -1.9820894031121E-01
51  5.0000000000000E-01  1.4399237859722E+00 -1.7681699202874E-01
52  5.1000000000000E-01  1.4403026136374E+00 -1.5430277620028E-01
53  5.2000000000000E-01  1.4390534951584E+00 -1.3062285674419E-01
54  5.3000000000000E-01  1.4361551126545E+00 -1.0573286698911E-01
55  5.4000000000000E-01  1.4315886771849E+00 -7.9588392879462E-02
56  5.5000000000000E-01  1.4253382319381E+00 -5.2145912389822E-02
57  5.6000000000000E-01  1.4173909574154E+00 -2.3363781156693E-02
58  5.7000000000000E-01  1.4077374756243E+00  6.7967464826565E-03
59  5.8000000000000E-01  1.3963721501749E+00  3.8370472565899E-02
60  5.9000000000000E-01  1.3832933790839E+00  7.1387198816938E-02
61  6.0000000000000E-01  1.3685038770218E+00  1.0587067078585E-01
62  6.1000000000000E-01  1.3520109437145E+00  1.4183753575360E-01
63  6.2000000000000E-01  1.3338267152103E+00  1.7929632754046E-01
64  6.3000000000000E-01  1.3139683947644E+00  2.1824649141632E-01
65  6.4000000000000E-01  1.2924584601630E+00  2.5867746222335E-01
66  6.5000000000000E-01  1.2693248444211E+00  3.0056780858539E-01
67  6.6000000000000E-01  1.2446010869281E+00  3.4388445568975E-01
68  6.7000000000000E-01  1.2183264522980E+00  3.8858199859134E-01
69  6.8000000000000E-01  1.1905460143879E+00  4.3460211731019E-01
70  6.9000000000000E-01  1.1613107031960E+00  4.8187310416634E-01
71  7.0000000000000E-01  1.1306773126258E+00  5.3030951284114E-01
72  7.1000000000000E-01  1.0987084674020E+00  5.7981193756589E-01
73  7.2000000000000E-01  1.0654725477580E+00  6.3026692964129E-01
74  7.3000000000000E-01  1.0310435708640E+00  6.8154705717292E-01
75  7.4000000000000E-01  9.9550102834007E-01  7.3351111250998E-01
76  7.5000000000000E-01  9.5892967958470E-01  7.8600447038557E-01
77  7.6000000000000E-01  9.2141930105637E-01  8.3885959820543E-01
78  7.7000000000000E-01  8.8306439205429E-01  8.9189671832803E-01
79  7.8000000000000E-01  8.4396383796274E-01  9.4492462054707E-01
80  7.9000000000000E-01  8.0422053234330E-01  9.9774162132571E-01
81  8.0000000000000E-01  7.6394095967251E-01  1.0501366646869E+00
82  8.1000000000000E-01  7.2323474093150E-01  1.1018905580268E+00
83  8.2000000000000E-01  6.8221414464966E-01  1.1527773345241E+00
84  8.3000000000000E-01  6.4099356638422E-01  1.2025657322766E+00
85  8.4000000000000E-01  5.9968897997714E-01  1.2510207788286E+00
86  8.5000000000000E-01  5.5841736426577E-01  1.2979054683763E+00
87  8.6000000000000E-01  5.1729610923056E-01  1.3429825176678E+00
88  8.7000000000000E-01  4.7644240583783E-01  1.3860161854662E+00
89  8.8000000000000E-01  4.3597262407553E-01  1.4267741394328E+00
90  8.9000000000000E-01  3.9600168388092E-01  1.4650293534287E+00
91  9.0000000000000E-01  3.5664242381956E-01  1.5005620175309E+00
92  9.1000000000000E-01  3.1800497249190E-01  1.5331614425353E+00
93  9.2000000000000E-01  2.8019612771556E-01  1.5626279403694E+00
94  9.3000000000000E-01  2.4331874855694E-01  1.5887746616783E+00
95  9.4000000000000E-01  2.0747116526320E-01  1.6114293718785E+00
96  9.5000000000000E-01  1.7274661207562E-01  1.6304361471971E+00
97  9.6000000000000E-01  1.3923268778653E-01  1.6456569726378E+00
98  9.7000000000000E-01  1.0701084873973E-01  1.6569732244085E+00
99  9.8000000000000E-01  7.6155938758396E-02  1.6642870201632E+00
100  9.9000000000000E-01  4.6735760231881E-02  1.6675224213750E+00
101  1.0000000000000E+00  1.8810690293012E-02  1.6666264733120E+00
102  1.0100000000000E+00 -7.5666543202672E-03  1.6615700694034E+00
103  1.0200000000000E+00 -3.2351700499145E-02  1.6523486282391E+00
104  1.0300000000000E+00 -5.5508147294338E-02  1.6389825730957E+00
105  1.0400000000000E+00 -7.7008137348179E-02  1.6215176054721E+00
106  1.0500000000000E+00 -9.6832369340207E-02  1.6000247661127E+00
107  1.0600000000000E+00 -1.1497015001054E-01  1.5746002787801E+00
108  1.0700000000000E+00 -1.3141938483205E-01  1.5453651740413E+00
109  1.0800000000000E+00 -1.4618650693749E-01  1.5124646924415E+00
110  1.0900000000000E+00 -1.5928634435925E-01  1.4760674682285E+00
111  1.1000000000000E+00 -1.7074192623103E-01  1.4363644971189E+00
112  1.1100000000000E+00 -1.8058422906409E-01  1.3935678934335E+00
113  1.1200000000000E+00 -1.8885186473681E-01  1.3479094439904E+00
114  1.1300000000000E+00 -1.9559071229749E-01  1.2996389679642E+00
115  1.1400000000000E+00 -2.0085349614154E-01  1.2490224937230E+00
116  1.1500000000000E+00 -2.0469931360502E-01  1.1963402655302E+00
117  1.1600000000000E+00 -2.0719311539381E-01  1.1418845944612E+00
118  1.1700000000000E+00 -2.0840514261949E-01  1.0859575692390E+00
119  1.1800000000000E+00 -2.0841032457552E-01  1.0288686440839E+00
120  1.1900000000000E+00 -2.0728764169388E-01  9.7093212182058E-01
121  1.2000000000000E+00 -2.0511945834672E-01  9.1246455130369E-01
122  1.2100000000000E+00 -2.0199083031576E-01  8.5378205880667E-01
123  1.2200000000000E+00 -1.9798879199847E-01  7.9519763386909E-01
124  1.2300000000000E+00 -1.9320162842758E-01  7.3701839003978E-01
125  1.2400000000000E+00 -1.8771813724577E-01  6.7954282113408E-01
126  1.2500000000000E+00 -1.8162688581301E-01  6.2305807363751E-01
127  1.2600000000000E+00 -1.7501546848209E-01  5.6783725516607E-01
128  1.2700000000000E+00 -1.6796976855561E-01  5.1413679557069E-01
129  1.2800000000000E+00 -1.6057323242000E-01  4.6219389711302E-01
130  1.2900000000000E+00 -1.5290614800043E-01  4.1222401254977E-01
131  1.3000000000000E+00 -1.4504499157313E-01  3.6441874158576E-01
132  1.3100000000000E+00 -1.3706166356996E-01  3.1894300699902E-01
133  1.3200000000000E+00 -1.2902290632797E-01  2.7593333893982E-01
134  1.3300000000000E+00 -1.2099029928678E-01  2.3550001246910E-01
135  1.3400000000000E+00 -1.1302039873460E-01  1.9772946763138E-01
136  1.3500000000000E+00 -1.0516502582627E-01  1.6268725013139E-01
137  1.3600000000000E+00 -9.7471014801845E-02  1.3041706725578E-01
138  1.3700000000000E+00 -8.9980110162285E-02  1.0094069343193E-01
139  1.3800000000000E+00 -8.2728930938061E-02  7.4258252373314E-02
140  1.3900000000000E+00 -7.5748968641852E-02  5.0348574016598E-02
141  1.4000000000000E+00 -6.9066634948198E-02  2.9169765768498E-02
142  1.4100000000000E+00 -6.2703356095437E-02  1.0659974415538E-02
143  1.4200000000000E+00 -5.6675712903301E-02 -5.2616646690233E-03
144  1.4300000000000E+00 -5.0995623849599E-02 -1.8693902917500E-02
145  1.4400000000000E+00 -4.5670569705500E-02 -2.9752085373830E-02
146  1.4500000000000E+00 -4.0703855807301E-02 -3.8566706189985E-02
147  1.4600000000000E+00 -3.6094909723075E-02 -4.5281822822922E-02
148  1.4700000000000E+00 -3.1839610192776E-02 -5.0053347060502E-02
149  1.4800000000000E+00 -2.7930643590805E-02 -5.3047229332072E-02
150  1.4900000000000E+00 -2.4357884069458E-02 -5.4437553244578E-02
151  1.5000000000000E+00 -2.1108792441664E-02 -5.4404561793359E-02
152  1.5100000000000E+00 -1.8168829931836E-02 -5.3132632328823E-02
153  1.5200000000000E+00 -1.5521881489866E-02 -5.0808223195565E-02
154  1.5300000000000E+00 -1.3150684353638E-02 -4.7617810944258E-02
155  1.5400000000000E+00 -1.1037256716869E-02 -4.3745840341823E-02
156  1.5500000000000E+00 -9.1633220304527E-03 -3.9372706596713E-02
157  1.5600000000000E+00 -7.5107237415010E-03 -3.4672792289539E-02
158  1.5700000000000E+00 -6.0618266031320E-03 -2.9812575670161E-02
159  1.5800000000000E+00 -4.7998989145399E-03 -2.4948834752793E-02
160  1.5900000000000E+00 -3.7094731845844E-03 -2.0226957897351E-02
161  1.6000000000000E+00 -2.7766788642230E-03 -1.5779388387878E-02
162  1.6100000000000E+00 -1.9896431211939E-03 -1.1724898768193E-02
163  1.6200000000000E+00 -1.3387381561755E-03 -8.1671865335456E-03
164  1.6300000000000E+00 -8.1478920359069E-04 -5.1778709685844E-03
165  1.6400000000000E+00 -4.1391357169803E-04 -2.8314234288512E-03
166  1.6500000000000E+00 -1.4055645063853E-04 -1.2441334250541E-03
167  1.6600000000000E+00  8.8963541006233E-06 -4.0160687207675E-04
168  1.6700000000000E+00  5.2387518978597E-05 -6.7094682794058E-05
169  1.6800000000000E+00  2.7147024252454E-05  9.7020962191511E-06
170  1.6900000000000E+00 -5.0019156176689E-06 -3.9376371580062E-06
171  1.7000000000000E+00 -7.7419530631796E-06 -8.3154451019655E-06
172  1.7100000000000E+00  8.5207230539772E-07  3.8165398335976E-07
173  1.7200000000000E+00  1.7172462753765E-06  9.9832584089777E-07
174  1.7300000000000E+00 -5.0196336681364E-08  1.2740991900442E-07
175  1.7400000000000E+00 -1.3459203316959E-07  3.4162572766279E-07
176  1.7500000000000E+00  0.0000000000000E+00  0.0000000000000E+00
177  1.7600000000000E+00  0.0000000000000E+00  0.0000000000000E+00
178  1.7700000000000E+00  0.0000000000000E+00  0.0000000000000E+00
179  1.7800000000000E+00  0.0000000000000E+00  0.0000000000000E+00
180  1.7900000000000E+00  0.0000000000000E+00  0.0000000000000E+00
181  1.8000000000000E+00  0.0000000000000E+00  0.0000000000000E+00
182  1.8100000000000E+00  0.0000000000000E+00  0.0000000000000E+00
183  1.8200000000000E+00  0.0000000000000E+00  0.0000000000000E+00
184  1.8300000000000E+00  0.0000000000000E+00  0.0000000000000E+00
185  1.8400000000000E+00  0.0000000000000E+00  0.0000000000000E+00
186  1.8500000000000E+00  0.0000000000000E+00  0.0000000000000E+00
187  1.8600000000000E+00  0.0000000000000E+00  0.0000000000000E+00
188  1.8700000000000E+00  0.0000000000000E+00  0.0000000000000E+00
189  1.8800000000000E+00  0.0000000000000E+00  0.0000000000000E+00
190  1.8900000000000E+00  0.0000000000000E+00  0.0000000000000E+00
191  1.9000000000000E+00  0.0000000000000E+00  0.0000000000000E+00
192  1.9100000000000E+00  0.0000000000000E+00  0.0000000000000E+00
193  1.9200000000000E+00  0.0000000000000E+00  0.0000000000000E+00
194  1.9300000000000E+00  0.0000000000000E+00  0.0000000000000E+00
195  1.9400000000000E+00  0.0000000000000E+00  0.0000000000000E+00
196  1.9500000000000E+00  0.0000000000000E+00  0.0000000000000E+00
197  1.9600000000000E+00  0.0000000000000E+00  0.0000000000000E+00
198  1.9700000000000E+00  0.0000000000000E+00  0.0000000000000E+00
199  1.9800000000000E+00  0.0000000000000E+00  0.0000000000000E+00
200  1.9900000000000E+00  0.0000000000000E+00  0.0000000000000E+00
201  2.0000000000000E+00  0.0000000000000E+00  0.0000000000000E+00
202  2.0100000000000E+00  0.0000000000000E+00  0.0000000000000E+00
203  2.0200000000000E+00  0.0000000000000E+00  0.0000000000000E+00
204  2.0300000000000E+00  0.0000000000000E+00  0.0000000000000E+00
205  2.0400000000000E+00  0.0000000000000E+00  0.0000000000000E+00
206  2.0500000000000E+00  0.0000000000000E+00  0.0000000000000E+00
207  2.0600000000000E+00  0.0000000000000E+00  0.0000000000000E+00
208  2.0700000000000E+00  0.0000000000000E+00  0.0000000000000E+00
209  2.0800000000000E+00  0.0000000000000E+00  0.0000000000000E+00
210  2.0900000000000E+00  0.0000000000000E+00  0.0000000000000E+00
211  2.1000000000000E+00  0.0000000000000E+00  0.0000000000000E+00
212  2.1100000000000E+00  0.0000000000000E+00  0.0000000000000E+00
213  2.1200000000000E+00  0.0000000000000E+00  0.0000000000000E+00
214  2.1300000000000E+00  0.0000000000000E+00  0.0000000000000E+00
215  2.1400000000000E+00  0.0000000000000E+00  0.0000000000000E+00
216  2.1500000000000E+00  0.0000000000000E+00  0.0000000000000E+00
217  2.1600000000000E+00  0.0000000000000E+00  0.0000000000000E+00
218  2.1700000000000E+00  0.0000000000000E+00  0.0000000000000E+00
219  2.1800000000000E+00  0.0000000000000E+00  0.0000000000000E+00
220  2.1900000000000E+00  0.0000000000000E+00  0.0000000000000E+00
221  2.2000000000000E+00  0.0000000000000E+00  0.0000000000000E+00
222  2.2100000000000E+00  0.0000000000000E+00  0.0000000000000E+00
223  2.2200000000000E+00  0.0000000000000E+00  0.0000000000000E+00
224  2.2300000000000E+00  0.0000000000000E+00  0.0000000000000E+00
225  2.2400000000000E+00  0.0000000000000E+00  0.0000000000000E+00
226  2.2500000000000E+00  0.0000000000000E+00  0.0000000000000E+00
227  2.2600000000000E+00  0.0000000000000E+00  0.0000000000000E+00
228  2.2700000000000E+00  0.0000000000000E+00  0.0000000000000E+00
229  2.2800000000000E+00  0.0000000000000E+00  0.0000000000000E+00
230  2.2900000000000E+00  0.0000000000000E+00  0.0000000000000E+00
231  2.3000000000000E+00  0.0000000000000E+00  0.0000000000000E+00
232  2.3100000000000E+00  0.0000000000000E+00  0.0000000000000E+00
233  2.3200000000000E+00  0.0000000000000E+00  0.0000000000000E+00
234  2.3300000000000E+00  0.0000000000000E+00  0.0000000000000E+00
235  2.3400000000000E+00  0.0000000000000E+00  0.0000000000000E+00
236  2.3500000000000E+00  0.0000000000000E+00  0.0000000000000E+00
237  2.3600000000000E+00  0.0000000000000E+00  0.0000000000000E+00
238  2.3700000000000E+00  0.0000000000000E+00  0.0000000000000E+00
239  2.3800000000000E+00  0.0000000000000E+00  0.0000000000000E+00
240  2.3900000000000E+00  0.0000000000000E+00  0.0000000000000E+00
241  2.4000000000000E+00  0.0000000000000E+00  0.0000000000000E+00
242  2.4100000000000E+00  0.0000000000000E+00  0.0000000000000E+00
243  2.4200000000000E+00  0.0000000000000E+00  0.0000000000000E+00
244  2.4300000000000E+00  0.0000000000000E+00  0.0000000000000E+00
245  2.4400000000000E+00  0.0000000000000E+00  0.0000000000000E+00
246  2.4500000000000E+00  0.0000000000000E+00  0.0000000000000E+00
247  2.4600000000000E+00  0.0000000000000E+00  0.0000000000000E+00
248  2.4700000000000E+00  0.0000000000000E+00  0.0000000000000E+00
249  2.4800000000000E+00  0.0000000000000E+00  0.0000000000000E+00
250  2.4900000000000E+00  0.0000000000000E+00  0.0000000000000E+00
251  2.5000000000000E+00  0.0000000000000E+00  0.0000000000000E+00
252  2.5100000000000E+00  0.0000000000000E+00  0.0000000000000E+00
253  2.5200000000000E+00  0.0000000000000E+00  0.0000000000000E+00
254  2.5300000000000E+00  0.0000000000000E+00  0.0000000000000E+00
255  2.5400000000000E+00  0.0000000000000E+00  0.0000000000000E+00
256  2.5500000000000E+00  0.0000000000000E+00  0.0000000000000E+00
257  2.5600000000000E+00  0.0000000000000E+00  0.0000000000000E+00
258  2.5700000000000E+00  0.0000000000000E+00  0.0000000000000E+00
259  2.5800000000000E+00  0.0000000000000E+00  0.0000000000000E+00
260  2.5900000000000E+00  0.0000000000000E+00  0.0000000000000E+00
261  2.6000000000000E+00  0.0000000000000E+00  0.0000000000000E+00
262  2.6100000000000E+00  0.0000000000000E+00  0.0000000000000E+00
263  2.6200000000000E+00  0.0000000000000E+00  0.0000000000000E+00
264  2.6300000000000E+00  0.0000000000000E+00  0.0000000000000E+00
265  2.6400000000000E+00  0.0000000000000E+00  0.0000000000000E+00
266  2.6500000000000E+00  0.0000000000000E+00  0.0000000000000E+00
267  2.6600000000000E+00  0.0000000000000E+00  0.0000000000000E+00
268  2.6700000000000E+00  0.0000000000000E+00  0.0000000000000E+00
269  2.6800000000000E+00  0.0000000000000E+00  0.0000000000000E+00
270  2.6900000000000E+00  0.0000000000000E+00  0.0000000000000E+00
271  2.7000000000000E+00  0.0000000000000E+00  0.0000000000000E+00
272  2.7100000000000E+00  0.0000000000000E+00  0.0000000000000E+00
273  2.7200000000000E+00  0.0000000000000E+00  0.0000000000000E+00
274  2.7300000000000E+00  0.0000000000000E+00  0.0000000000000E+00
275  2.7400000000000E+00  0.0000000000000E+00  0.0000000000000E+00
276  2.7500000000000E+00  0.0000000000000E+00  0.0000000000000E+00
277  2.7600000000000E+00  0.0000000000000E+00  0.0000000000000E+00
278  2.7700000000000E+00  0.0000000000000E+00  0.0000000000000E+00
279  2.7800000000000E+00  0.0000000000000E+00  0.0000000000000E+00
280  2.7900000000000E+00  0.0000000000000E+00  0.0000000000000E+00
281  2.8000000000000E+00  0.0000000000000E+00  0.0000000000000E+00
282  2.8100000000000E+00  0.0000000000000E+00  0.0000000000000E+00
283  2.8200000000000E+00  0.0000000000000E+00  0.0000000000000E+00
284  2.8300000000000E+00  0.0000000000000E+00  0.0000000000000E+00
285  2.8400000000000E+00  0.0000000000000E+00  0.0000000000000E+00
286  2.8500000000000E+00  0.0000000000000E+00  0.0000000000000E+00
287  2.8600000000000E+00  0.0000000000000E+00  0.0000000000000E+00
288  2.8700000000000E+00  0.0000000000000E+00  0.0000000000000E+00
289  2.8800000000000E+00  0.0000000000000E+00  0.0000000000000E+00
290  2.8900000000000E+00  0.0000000000000E+00  0.0000000000000E+00
291  2.9000000000000E+00  0.0000000000000E+00  0.0000000000000E+00
292  2.9100000000000E+00  0.0000000000000E+00  0.0000000000000E+00
293  2.9200000000000E+00  0.0000000000000E+00  0.0000000000000E+00
294  2.9300000000000E+00  0.0000000000000E+00  0.0000000000000E+00
295  2.9400000000000E+00  0.0000000000000E+00  0.0000000000000E+00
296  2.9500000000000E+00  0.0000000000000E+00  0.0000000000000E+00
297  2.9600000000000E+00  0.0000000000000E+00  0.0000000000000E+00
298  2.9700000000000E+00  0.0000000000000E+00  0.0000000000000E+00
299  2.9800000000000E+00  0.0000000000000E+00  0.0000000000000E+00
300  2.9900000000000E+00  0.0000000000000E+00  0.0000000000000E+00
301  3.0000000000000E+00  0.0000000000000E+00  0.0000000000000E+00
302  3.0100000000000E+00  0.0000000000000E+00  0.0000000000000E+00
303  3.0200000000000E+00  0.0000000000000E+00  0.0000000000000E+00
304  3.0300000000000E+00  0.0000000000000E+00  0.0000000000000E+00
305  3.0400000000000E+00  0.0000000000000E+00  0.0000000000000E+00
306  3.0500000000000E+00  0.0000000000000E+00  0.0000000000000E+00
307  3.0600000000000E+00  0.0000000000000E+00  0.0000000000000E+00
308  3.0700000000000E+00  0.0000000000000E+00  0.0000000000000E+00
309  3.0800000000000E+00  0.0000000000000E+00  0.0000000000000E+00
310  3.0900000000000E+00  0.0000000000000E+00  0.0000000000000E+00
311  3.1000000000000E+00  0.0000000000000E+00  0.0000000000000E+00
312  3.1100000000000E+00  0.0000000000000E+00  0.0000000000000E+00
313  3.1200000000000E+00  0.0000000000000E+00  0.0000000000000E+00
314  3.1300000000000E+00  0.0000000000000E+00  0.0000000000000E+00
315  3.1400000000000E+00  0.0000000000000E+00  0.0000000000000E+00
316  3.1500000000000E+00  0.0000000000000E+00  0.0000000000000E+00
317  3.1600000000000E+00  0.0000000000000E+00  0.0000000000000E+00
318  3.1700000000000E+00  0.0000000000000E+00  0.0000000000000E+00
319  3.1800000000000E+00  0.0000000000000E+00  0.0000000000000E+00
320  3.1900000000000E+00  0.0000000000000E+00  0.0000000000000E+00
321  3.2000000000000E+00  0.0000000000000E+00  0.0000000000000E+00
322  3.2100000000000E+00  0.0000000000000E+00  0.0000000000000E+00
323  3.2200000000000E+00  0.0000000000000E+00  0.0000000000000E+00
324  3.2300000000000E+00  0.0000000000000E+00  0.0000000000000E+00
325  3.2400000000000E+00  0.0000000000000E+00  0.0000000000000E+00
326  3.2500000000000E+00  0.0000000000000E+00  0.0000000000000E+00
327  3.2600000000000E+00  0.0000000000000E+00  0.0000000000000E+00
328  3.2700000000000E+00  0.0000000000000E+00  0.0000000000000E+00
329  3.2800000000000E+00  0.0000000000000E+00  0.0000000000000E+00
330  3.2900000000000E+00  0.0000000000000E+00  0.0000000000000E+00
331  3.3000000000000E+00  0.0000000000000E+00  0.0000000000000E+00
332  3.3100000000000E+00  0.0000000000000E+00  0.0000000000000E+00
333  3.3200000000000E+00  0.0000000000000E+00  0.0000000000000E+00
334  3.3300000000000E+00  0.0000000000000E+00  0.0000000000000E+00
335  3.3400000000000E+00  0.0000000000000E+00  0.0000000000000E+00
336  3.3500000000000E+00  0.0000000000000E+00  0.0000000000000E+00
337  3.3600000000000E+00  0.0000000000000E+00  0.0000000000000E+00
338  3.3700000000000E+00  0.0000000000000E+00  0.0000000000000E+00
339  3.3800000000000E+00  0.0000000000000E+00  0.0000000000000E+00
340  3.3900000000000E+00  0.0000000000000E+00  0.0000000000000E+00
341  3.4000000000000E+00  0.0000000000000E+00  0.0000000000000E+00
342  3.4100000000000E+00  0.0000000000000E+00  0.0000000000000E+00
343  3.4200000000000E+00  0.0000000000000E+00  0.0000000000000E+00
344  3.4300000000000E+00  0.0000000000000E+00  0.0000000000000E+00
345  3.4400000000000E+00  0.0000000000000E+00  0.0000000000000E+00
346  3.4500000000000E+00  0.0000000000000E+00  0.0000000000000E+00
347  3.4600000000000E+00  0.0000000000000E+00  0.0000000000000E+00
348  3.4700000000000E+00  0.0000000000000E+00  0.0000000000000E+00
349  3.4800000000000E+00  0.0000000000000E+00  0.0000000000000E+00
350  3.4900000000000E+00  0.0000000000000E+00  0.0000000000000E+00
351  3.5000000000000E+00  0.0000000000000E+00  0.0000000000000E+00
352  3.5100000000000E+00  0.0000000000000E+00  0.0000000000000E+00
353  3.5200000000000E+00  0.0000000000000E+00  0.0000000000000E+00
354  3.5300000000000E+00  0.0000000000000E+00  0.0000000000000E+00
355  3.5400000000000E+00  0.0000000000000E+00  0.0000000000000E+00
356  3.5500000000000E+00  0.0000000000000E+00  0.0000000000000E+00
357  3.5600000000000E+00  0.0000000000000E+00  0.0000000000000E+00
358  3.5700000000000E+00  0.0000000000000E+00  0.0000000000000E+00
359  3.5800000000000E+00  0.0000000000000E+00  0.0000000000000E+00
360  3.5900000000000E+00  0.0000000000000E+00  0.0000000000000E+00
361  3.6000000000000E+00  0.0000000000000E+00  0.0000000000000E+00
362  3.6100000000000E+00  0.0000000000000E+00  0.0000000000000E+00
363  3.6200000000000E+00  0.0000000000000E+00  0.0000000000000E+00
364  3.6300000000000E+00  0.0000000000000E+00  0.0000000000000E+00
365  3.6400000000000E+00  0.0000000000000E+00  0.0000000000000E+00
366  3.6500000000000E+00  0.0000000000000E+00  0.0000000000000E+00
367  3.6600000000000E+00  0.0000000000000E+00  0.0000000000000E+00
368  3.6700000000000E+00  0.0000000000000E+00  0.0000000000000E+00
369  3.6800000000000E+00  0.0000000000000E+00  0.0000000000000E+00
370  3.6900000000000E+00  0.0000000000000E+00  0.0000000000000E+00
371  3.7000000000000E+00  0.0000000000000E+00  0.0000000000000E+00
372  3.7100000000000E+00  0.0000000000000E+00  0.0000000000000E+00
373  3.7200000000000E+00  0.0000000000000E+00  0.0000000000000E+00
374  3.7300000000000E+00  0.0000000000000E+00  0.0000000000000E+00
375  3.7400000000000E+00  0.0000000000000E+00  0.0000000000000E+00
376  3.7500000000000E+00  0.0000000000000E+00  0.0000000000000E+00
377  3.7600000000000E+00  0.0000000000000E+00  0.0000000000000E+00
378  3.7700000000000E+00  0.0000000000000E+00  0.0000000000000E+00
379  3.7800000000000E+00  0.0000000000000E+00  0.0000000000000E+00
380  3.7900000000000E+00  0.0000000000000E+00  0.0000000000000E+00
381  3.8000000000000E+00  0.0000000000000E+00  0.0000000000000E+00
382  3.8100000000000E+00  0.0000000000000E+00  0.0000000000000E+00
383  3.8200000000000E+00  0.0000000000000E+00  0.0000000000000E+00
384  3.8300000000000E+00  0.0000000000000E+00  0.0000000000000E+00
385  3.8400000000000E+00  0.0000000000000E+00  0.0000000000000E+00
386  3.8500000000000E+00  0.0000000000000E+00  0.0000000000000E+00
387  3.8600000000000E+00  0.0000000000000E+00  0.0000000000000E+00
388  3.8700000000000E+00  0.0000000000000E+00  0.0000000000000E+00
389  3.8800000000000E+00  0.0000000000000E+00  0.0000000000000E+00
390  3.8900000000000E+00  0.0000000000000E+00  0.0000000000000E+00
391  3.9000000000000E+00  0.0000000000000E+00  0.0000000000000E+00
392  3.9100000000000E+00  0.0000000000000E+00  0.0000000000000E+00
393  3.9200000000000E+00  0.0000000000000E+00  0.0000000000000E+00
394  3.9300000000000E+00  0.0000000000000E+00  0.0000000000000E+00
395  3.9400000000000E+00  0.0000000000000E+00  0.0000000000000E+00
396  3.9500000000000E+00  0.0000000000000E+00  0.0000000000000E+00
397  3.9600000000000E+00  0.0000000000000E+00  0.0000000000000E+00
398  3.9700000000000E+00  0.0000000000000E+00  0.0000000000000E+00
399  3.9800000000000E+00  0.0000000000000E+00  0.0000000000000E+00
400  3.9900000000000E+00  0.0000000000000E+00  0.0000000000000E+00
401  4.0000000000000E+00  0.0000000000000E+00  0.0000000000000E+00
402  4.0100000000000E+00  0.0000000000000E+00  0.0000000000000E+00
403  4.0200000000000E+00  0.0000000000000E+00  0.0000000000000E+00
404  4.0300000000000E+00  0.0000000000000E+00  0.0000000000000E+00
405  4.0400000000000E+00  0.0000000000000E+00  0.0000000000000E+00
406  4.0500000000000E+00  0.0000000000000E+00  0.0000000000000E+00
407  4.0600000000000E+00  0.0000000000000E+00  0.0000000000000E+00
408  4.0700000000000E+00  0.0000000000000E+00  0.0000000000000E+00
409  4.0800000000000E+00  0.0000000000000E+00  0.0000000000000E+00
410  4.0900000000000E+00  0.0000000000000E+00  0.0000000000000E+00
411  4.1000000000000E+00  0.0000000000000E+00  0.0000000000000E+00
412  4.1100000000000E+00  0.0000000000000E+00  0.0000000000000E+00
413  4.1200000000000E+00  0.0000000000000E+00  0.0000000000000E+00
414  4.1300000000000E+00  0.0000000000000E+00  0.0000000000000E+00
415  4.1400000000000E+00  0.0000000000000E+00  0.0000000000000E+00
416  4.1500000000000E+00  0.0000000000000E+00  0.0000000000000E+00
417  4.1600000000000E+00  0.0000000000000E+00  0.0000000000000E+00
418  4.1700000000000E+00  0.0000000000000E+00  0.0000000000000E+00
419  4.1800000000000E+00  0.0000000000000E+00  0.0000000000000E+00
420  4.1900000000000E+00  0.0000000000000E+00  0.0000000000000E+00
421  4.2000000000000E+00  0.0000000000000E+00  0.0000000000000E+00
422  4.2100000000000E+00  0.0000000000000E+00  0.0000000000000E+00
423  4.2200000000000E+00  0.0000000000000E+00  0.0000000000000E+00
424  4.2300000000000E+00  0.0000000000000E+00  0.0000000000000E+00
425  4.2400000000000E+00  0.0000000000000E+00  0.0000000000000E+00
426  4.2500000000000E+00  0.0000000000000E+00  0.0000000000000E+00
427  4.2600000000000E+00  0.0000000000000E+00  0.0000000000000E+00
428  4.2700000000000E+00  0.0000000000000E+00  0.0000000000000E+00
429  4.2800000000000E+00  0.0000000000000E+00  0.0000000000000E+00
430  4.2900000000000E+00  0.0000000000000E+00  0.0000000000000E+00
431  4.3000000000000E+00  0.0000000000000E+00  0.0000000000000E+00
432  4.3100000000000E+00  0.0000000000000E+00  0.0000000000000E+00
433  4.3200000000000E+00  0.0000000000000E+00  0.0000000000000E+00
434  4.3300000000000E+00  0.0000000000000E+00  0.0000000000000E+00
435  4.3400000000000E+00  0.0000000000000E+00  0.0000000000000E+00
436  4.3500000000000E+00  0.0000000000000E+00  0.0000000000000E+00
437  4.3600000000000E+00  0.0000000000000E+00  0.0000000000000E+00
438  4.3700000000000E+00  0.0000000000000E+00  0.0000000000000E+00
439  4.3800000000000E+00  0.0000000000000E+00  0.0000000000000E+00
440  4.3900000000000E+00  0.0000000000000E+00  0.0000000000000E+00
441  4.4000000000000E+00  0.0000000000000E+00  0.0000000000000E+00
442  4.4100000000000E+00  0.0000000000000E+00  0.0000000000000E+00
443  4.4200000000000E+00  0.0000000000000E+00  0.0000000000000E+00