Y     ONCVPSP-3.2.3.1  r_core=   1.60520   1.51226   1.56736
39.0000     11.0000      170510    zatom,zion,pspd
8      11   2     4   600     0    pspcod,pspxc,lmax,lloc,mmax,r2well
5.99000000  4.00000000  0.00000000    rchrg fchrg qchrg
2     2     2     0     0    nproj
1     1           extension_switch
0                         1.0169752155619E+01  8.7532117637675E-01
1  0.0000000000000E+00  7.0509709182431E-11 -2.5457380647964E-10
2  1.0000000000000E-02  4.9197031551307E-02 -1.0028289379763E-02
3  2.0000000000000E-02  9.8359722244062E-02 -2.0110790713645E-02
4  3.0000000000000E-02  1.4745352767554E-01 -3.0300772477692E-02
5  4.0000000000000E-02  1.9644349865773E-01 -4.0649624666907E-02
6  5.0000000000000E-02  2.4529408456430E-01 -5.1205940677699E-02
7  6.0000000000000E-02  2.9396894351517E-01 -6.2014624357028E-02
8  7.0000000000000E-02  3.4243076159450E-01 -7.3116030307004E-02
9  8.0000000000000E-02  3.9064108322781E-01 -8.4545145279079E-02
10  9.0000000000000E-02  4.3856015475638E-01 -9.6330818177082E-02
11  1.0000000000000E-01  4.8614678314405E-01 -1.0849504581519E-01
12  1.1000000000000E-01  5.3335821163244E-01 -1.2105232114837E-01
13  1.2000000000000E-01  5.8015001402770E-01 -1.3400905021131E-01
14  1.3000000000000E-01  6.2647600915462E-01 -1.4736304347177E-01
15  1.4000000000000E-01  6.7228819685461E-01 -1.6110308672768E-01
16  1.5000000000000E-01  7.1753671673282E-01 -1.7520859606017E-01
17  1.6000000000000E-01  7.6216983067838E-01 -1.8964936069986E-01
18  1.7000000000000E-01  8.0613392999131E-01 -2.0438537697621E-01
19  1.8000000000000E-01  8.4937356775153E-01 -2.1936677580515E-01
20  1.9000000000000E-01  8.9183151686110E-01 -2.3453384543219E-01
21  2.0000000000000E-01  9.3344885398151E-01 -2.4981715039373E-01
22  2.1000000000000E-01  9.7416506937546E-01 -2.6513774689217E-01
23  2.2000000000000E-01  1.0139182024482E+00 -2.8040749400739E-01
24  2.3000000000000E-01  1.0526450025688E+00 -2.9552945939347E-01
25  2.4000000000000E-01  1.0902811145389E+00 -3.1039841734041E-01
26  2.5000000000000E-01  1.1267612878658E+00 -3.2490143632257E-01
27  2.6000000000000E-01  1.1620196087908E+00 -3.3891855241356E-01
28  2.7000000000000E-01  1.1959897538240E+00 -3.5232352422725E-01
29  2.8000000000000E-01  1.2286052633453E+00 -3.6498466435192E-01
30  2.9000000000000E-01  1.2597998336456E+00 -3.7676574158487E-01
31  3.0000000000000E-01  1.2895076256111E+00 -3.8752694765211E-01
32  3.1000000000000E-01  1.3176635880933E+00 -3.9712592151899E-01
33  3.2000000000000E-01  1.3442037938544E+00 -4.0541882386540E-01
34  3.3000000000000E-01  1.3690657858507E+00 -4.1226145381887E-01
35  3.4000000000000E-01  1.3921889314909E+00 -4.1751039961495E-01
36  3.5000000000000E-01  1.4135147824091E+00 -4.2102421448911E-01
37  3.6000000000000E-01  1.4329874372047E+00 -4.2266460880227E-01
38  3.7000000000000E-01  1.4505539045347E+00 -4.2229764916606E-01
39  3.8000000000000E-01  1.4661644638959E+00 -4.1979495516488E-01
40  3.9000000000000E-01  1.4797730214061E+00 -4.1503488417398E-01
41  4.0000000000000E-01  1.4913374578825E+00 -4.0790369474553E-01
42  4.1000000000000E-01  1.5008199665268E+00 -3.9829667908000E-01
43  4.2000000000000E-01  1.5081873775590E+00 -3.8611925521859E-01
44  4.3000000000000E-01  1.5134114671882E+00 -3.7128800978298E-01
45  4.4000000000000E-01  1.5164692483848E+00 -3.5373168235220E-01
46  4.5000000000000E-01  1.5173432410039E+00 -3.3339208289896E-01
47  4.6000000000000E-01  1.5160217189216E+00 -3.1022493411240E-01
48  4.7000000000000E-01  1.5124989319735E+00 -2.8420063090203E-01
49  4.8000000000000E-01  1.5067753006295E+00 -2.5530490991252E-01
50  4.9000000000000E-01  1.4988575815017E+00 -2.2353942247305E-01
51  5.0000000000000E-01  1.4887590019611E+00 -1.8892220505580E-01
52  5.1000000000000E-01  1.4764993623319E+00 -1.5148804202289E-01
53  5.2000000000000E-01  1.4621051043368E+00 -1.1128871619172E-01
54  5.3000000000000E-01  1.4456093446895E+00 -6.8393143543904E-02
55  5.4000000000000E-01  1.4270518729546E+00 -2.2887389233933E-02
56  5.5000000000000E-01  1.4064791130374E+00  2.5125437083087E-02
57  5.6000000000000E-01  1.3839440479100E+00  7.5525407698444E-02
58  5.7000000000000E-01  1.3595061074309E+00  1.2817612525790E-01
59  5.8000000000000E-01  1.3332310193710E+00  1.8292519240114E-01
60  5.9000000000000E-01  1.3051906240147E+00  2.3960480097776E-01
61  6.0000000000000E-01  1.2754626529634E+00  2.9803243826738E-01
62  6.1000000000000E-01  1.2441304730212E+00  3.5801170671645E-01
63  6.2000000000000E-01  1.2112827962961E+00  4.1933325281415E-01
64  6.3000000000000E-01  1.1770133578933E+00  4.8177579985322E-01
65  6.4000000000000E-01  1.1414205628170E+00  5.4510727848529E-01
66  6.5000000000000E-01  1.1046071039241E+00  6.0908604817435E-01
67  6.6000000000000E-01  1.0666795529908E+00  6.7346220189225E-01
68  6.7000000000000E-01  1.0277479271563E+00  7.3797894569307E-01
69  6.8000000000000E-01  9.8792523320007E-01  8.0237404414908E-01
70  6.9000000000000E-01  9.4732699227745E-01  8.6638132204027E-01
71  7.0000000000000E-01  9.0607074789994E-01  9.2973221216772E-01
72  7.1000000000000E-01  8.6427556007749E-01  9.9215733871036E-01
73  7.2000000000000E-01  8.2206148866045E-01  1.0533881251694E+00
74  7.3000000000000E-01  7.7954906901215E-01  1.1131584156527E+00
75  7.4000000000000E-01  7.3685878321650E-01  1.1712060980395E+00
76  7.5000000000000E-01  6.9411053007540E-01  1.2272747174452E+00
77  7.6000000000000E-01  6.5142309717693E-01  1.2811150683656E+00
78  7.7000000000000E-01  6.0891363831889E-01  1.3324867539373E+00
79  7.8000000000000E-01  5.6669715955041E-01  1.3811597008907E+00
80  7.9000000000000E-01  5.2488601704974E-01  1.4269156190091E+00
81  8.0000000000000E-01  4.8358942998682E-01  1.4695493942217E+00
82  8.1000000000000E-01  4.4291301142703E-01  1.5088704048749E+00
83  8.2000000000000E-01  4.0295832021670E-01  1.5447037512113E+00
84  8.3000000000000E-01  3.6382243665332E-01  1.5768913886653E+00
85  8.4000000000000E-01  3.2559756458432E-01  1.6052931562353E+00
86  8.5000000000000E-01  2.8837066239902E-01  1.6297876919144E+00
87  8.6000000000000E-01  2.5222310517988E-01  1.6502732279617E+00
88  8.7000000000000E-01  2.1723038006381E-01  1.6666682596457E+00
89  8.8000000000000E-01  1.8346181663235E-01  1.6789120820090E+00
90  8.9000000000000E-01  1.5098035390357E-01  1.6869651901625E+00
91  9.0000000000000E-01  1.1984234524055E-01  1.6908095396222E+00
92  9.1000000000000E-01  9.0097402222183E-02  1.6904486642412E+00
93  9.2000000000000E-01  6.1788278245634E-02  1.6859076503534E+00
94  9.3000000000000E-01  3.4950792345842E-02  1.6772329668290E+00
95  9.4000000000000E-01  9.6137934308368E-03  1.6644921518346E+00
96  9.5000000000000E-01 -1.4200835157589E-02  1.6477733581839E+00
97  9.6000000000000E-01 -3.6478131136089E-02  1.6271847602479E+00
98  9.7000000000000E-01 -5.7209969491555E-02  1.6028538264727E+00
99  9.8000000000000E-01 -7.6394940352849E-02  1.5749264625698E+00
100  9.9000000000000E-01 -9.4038189743261E-02  1.5435660314799E+00
101  1.0000000000000E+00 -1.1015122469372E-01  1.5089522571598E+00
102  1.0100000000000E+00 -1.2475168444878E-01  1.4712800201566E+00
103  1.0200000000000E+00 -1.3786307973528E-01  1.4307580537888E+00
104  1.0300000000000E+00 -1.4951450228510E-01  1.3876075505401E+00
105  1.0400000000000E+00 -1.5974030701113E-01  1.3420606889951E+00
106  1.0500000000000E+00 -1.6857976940822E-01  1.2943590922429E+00
107  1.0600000000000E+00 -1.7607672093244E-01  1.2447522292763E+00
108  1.0700000000000E+00 -1.8227916523942E-01  1.1934957713298E+00
109  1.0800000000000E+00 -1.8723887828562E-01  1.1408499154738E+00
110  1.0900000000000E+00 -1.9101099538974E-01  1.0870776880418E+00
111  1.1000000000000E+00 -1.9365358841392E-01  1.0324432406218E+00
112  1.1100000000000E+00 -1.9522723627587E-01  9.7721015141652E-01
113  1.1200000000000E+00 -1.9579459201044E-01  9.2163974471074E-01
114  1.1300000000000E+00 -1.9541994958527E-01  8.6598944100841E-01
115  1.1400000000000E+00 -1.9416881364606E-01  8.1051115019436E-01
116  1.1500000000000E+00 -1.9210747529861E-01  7.5544971967804E-01
117  1.1600000000000E+00 -1.8930259694408E-01  7.0104144901896E-01
118  1.1700000000000E+00 -1.8582080904911E-01  6.4751268188203E-01
119  1.1800000000000E+00 -1.8172832164487E-01  5.9507848575241E-01
120  1.1900000000000E+00 -1.7709055313292E-01  5.4394142884131E-01
121  1.2000000000000E+00 -1.7197177880724E-01  4.9429046287077E-01
122  1.2100000000000E+00 -1.6643480129321E-01  4.4629991949925E-01
123  1.2200000000000E+00 -1.6054064493619E-01  4.0012862740819E-01
124  1.2300000000000E+00 -1.5434827584167E-01  3.5591915564087E-01
125  1.2400000000000E+00 -1.4791434901304E-01  3.1379718769985E-01
126  1.2500000000000E+00 -1.4129298394979E-01  2.7387103054123E-01
127  1.2600000000000E+00 -1.3453556953534E-01  2.3623126034876E-01
128  1.2700000000000E+00 -1.2769059884545E-01  2.0095050615367E-01
129  1.2800000000000E+00 -1.2080353441110E-01  1.6808337194674E-01
130  1.2900000000000E+00 -1.1391670388398E-01  1.3766649549373E-01
131  1.3000000000000E+00 -1.0706922583030E-01  1.0971874116230E-01
132  1.3100000000000E+00 -1.0029696537396E-01  8.4241524035917E-02
133  1.3200000000000E+00 -9.3632518687816E-02  6.1219259628337E-02
134  1.3300000000000E+00 -8.7105225255876E-02  4.0619933227362E-02
135  1.3400000000000E+00 -8.0741206790411E-02  2.2395782713595E-02
136  1.3500000000000E+00 -7.4563430915562E-02  6.4840855939582E-03
137  1.3600000000000E+00 -6.8591797924647E-02 -7.1919582072823E-03
138  1.3700000000000E+00 -6.2843248598048E-02 -1.8722257566400E-02
139  1.3800000000000E+00 -5.7331890575678E-02 -2.8208787068188E-02
140  1.3900000000000E+00 -5.2069141078401E-02 -3.5764480116185E-02
141  1.4000000000000E+00 -4.7063883155627E-02 -4.1512071175220E-02
142  1.4100000000000E+00 -4.2322632705921E-02 -4.5582899735370E-02
143  1.4200000000000E+00 -3.7849713477469E-02 -4.8115688827126E-02
144  1.4300000000000E+00 -3.3647436880435E-02 -4.9255312194924E-02
145  1.4400000000000E+00 -2.9716283711963E-02 -4.9151563304683E-02
146  1.4500000000000E+00 -2.6055084554338E-02 -4.7957940549353E-02
147  1.4600000000000E+00 -2.2661195582865E-02 -4.5830463319994E-02
148  1.4700000000000E+00 -1.9530666628101E-02 -4.2926532910995E-02
149  1.4800000000000E+00 -1.6658398529670E-02 -3.9403850202484E-02
150  1.4900000000000E+00 -1.4038298284025E-02 -3.5419351801196E-02
151  1.5000000000000E+00 -1.1663443899834E-02 -3.1128090785275E-02
152  1.5100000000000E+00 -9.5259649774367E-03 -2.6683540867175E-02
153  1.5200000000000E+00 -7.6174864393839E-03 -2.2235089913364E-02
154  1.5300000000000E+00 -5.9298972481678E-03 -1.7923869222753E-02
155  1.5400000000000E+00 -4.4560681819113E-03 -1.3879082319369E-02
156  1.5500000000000E+00 -3.1909288505329E-03 -1.0213901258972E-02
157  1.5600000000000E+00 -2.1315564159341E-03 -7.0252944336261E-03
158  1.5700000000000E+00 -1.2734708241087E-03 -4.3768315908587E-03
159  1.5800000000000E+00 -6.2048402490964E-04 -2.3408330508873E-03
160  1.5900000000000E+00 -1.8727120816603E-04 -1.0267326622391E-03
161  1.6000000000000E+00  3.3031354206980E-05 -3.7393633505268E-04
162  1.6100000000000E+00  7.7571159278061E-05 -1.0816509651971E-04
163  1.6200000000000E+00  2.6400390424814E-05 -1.4064358284690E-05
164  1.6300000000000E+00 -1.2777021864736E-05  3.5492240838570E-06
165  1.6400000000000E+00 -7.3459892019405E-06  7.7245228683583E-07
166  1.6500000000000E+00  2.6035919476745E-06 -1.4289396606371E-06
167  1.6600000000000E+00  1.5105081038271E-06 -6.9856688665164E-07
168  1.6700000000000E+00 -1.9023050905127E-07  5.2481328914072E-07
169  1.6800000000000E+00 -1.1051131881143E-07  3.0488174058913E-07
170  1.6900000000000E+00  0.0000000000000E+00  0.0000000000000E+00
171  1.7000000000000E+00  0.0000000000000E+00  0.0000000000000E+00
172  1.7100000000000E+00  0.0000000000000E+00  0.0000000000000E+00
173  1.7200000000000E+00  0.0000000000000E+00  0.0000000000000E+00
174  1.7300000000000E+00  0.0000000000000E+00  0.0000000000000E+00
175  1.7400000000000E+00  0.0000000000000E+00  0.0000000000000E+00
176  1.7500000000000E+00  0.0000000000000E+00  0.0000000000000E+00
177  1.7600000000000E+00  0.0000000000000E+00  0.0000000000000E+00
178  1.7700000000000E+00  0.0000000000000E+00  0.0000000000000E+00
179  1.7800000000000E+00  0.0000000000000E+00  0.0000000000000E+00
180  1.7900000000000E+00  0.0000000000000E+00  0.0000000000000E+00
181  1.8000000000000E+00  0.0000000000000E+00  0.0000000000000E+00
182  1.8100000000000E+00  0.0000000000000E+00  0.0000000000000E+00
183  1.8200000000000E+00  0.0000000000000E+00  0.0000000000000E+00
184  1.8300000000000E+00  0.0000000000000E+00  0.0000000000000E+00
185  1.8400000000000E+00  0.0000000000000E+00  0.0000000000000E+00
186  1.8500000000000E+00  0.0000000000000E+00  0.0000000000000E+00
187  1.8600000000000E+00  0.0000000000000E+00  0.0000000000000E+00
188  1.8700000000000E+00  0.0000000000000E+00  0.0000000000000E+00
189  1.8800000000000E+00  0.0000000000000E+00  0.0000000000000E+00
190  1.8900000000000E+00  0.0000000000000E+00  0.0000000000000E+00
191  1.9000000000000E+00  0.0000000000000E+00  0.0000000000000E+00
192  1.9100000000000E+00  0.0000000000000E+00  0.0000000000000E+00
193  1.9200000000000E+00  0.0000000000000E+00  0.0000000000000E+00
194  1.9300000000000E+00  0.0000000000000E+00  0.0000000000000E+00
195  1.9400000000000E+00  0.0000000000000E+00  0.0000000000000E+00
196  1.9500000000000E+00  0.0000000000000E+00  0.0000000000000E+00
197  1.9600000000000E+00  0.0000000000000E+00  0.0000000000000E+00
198  1.9700000000000E+00  0.0000000000000E+00  0.0000000000000E+00
199  1.9800000000000E+00  0.0000000000000E+00  0.0000000000000E+00
200  1.9900000000000E+00  0.0000000000000E+00  0.0000000000000E+00
201  2.0000000000000E+00  0.0000000000000E+00  0.0000000000000E+00
202  2.0100000000000E+00  0.0000000000000E+00  0.0000000000000E+00
203  2.0200000000000E+00  0.0000000000000E+00  0.0000000000000E+00
204  2.0300000000000E+00  0.0000000000000E+00  0.0000000000000E+00
205  2.0400000000000E+00  0.0000000000000E+00  0.0000000000000E+00
206  2.0500000000000E+00  0.0000000000000E+00  0.0000000000000E+00
207  2.0600000000000E+00  0.0000000000000E+00  0.0000000000000E+00
208  2.0700000000000E+00  0.0000000000000E+00  0.0000000000000E+00
209  2.0800000000000E+00  0.0000000000000E+00  0.0000000000000E+00
210  2.0900000000000E+00  0.0000000000000E+00  0.0000000000000E+00
211  2.1000000000000E+00  0.0000000000000E+00  0.0000000000000E+00
212  2.1100000000000E+00  0.0000000000000E+00  0.0000000000000E+00
213  2.1200000000000E+00  0.0000000000000E+00  0.0000000000000E+00
214  2.1300000000000E+00  0.0000000000000E+00  0.0000000000000E+00
215  2.1400000000000E+00  0.0000000000000E+00  0.0000000000000E+00
216  2.1500000000000E+00  0.0000000000000E+00  0.0000000000000E+00
217  2.1600000000000E+00  0.0000000000000E+00  0.0000000000000E+00
218  2.1700000000000E+00  0.0000000000000E+00  0.0000000000000E+00
219  2.1800000000000E+00  0.0000000000000E+00  0.0000000000000E+00
220  2.1900000000000E+00  0.0000000000000E+00  0.0000000000000E+00
221  2.2000000000000E+00  0.0000000000000E+00  0.0000000000000E+00
222  2.2100000000000E+00  0.0000000000000E+00  0.0000000000000E+00
223  2.2200000000000E+00  0.0000000000000E+00  0.0000000000000E+00
224  2.2300000000000E+00  0.0000000000000E+00  0.0000000000000E+00
225  2.2400000000000E+00  0.0000000000000E+00  0.0000000000000E+00
226  2.2500000000000E+00  0.0000000000000E+00  0.0000000000000E+00
227  2.2600000000000E+00  0.0000000000000E+00  0.0000000000000E+00
228  2.2700000000000E+00  0.0000000000000E+00  0.0000000000000E+00
229  2.2800000000000E+00  0.0000000000000E+00  0.0000000000000E+00
230  2.2900000000000E+00  0.0000000000000E+00  0.0000000000000E+00
231  2.3000000000000E+00  0.0000000000000E+00  0.0000000000000E+00
232  2.3100000000000E+00  0.0000000000000E+00  0.0000000000000E+00
233  2.3200000000000E+00  0.0000000000000E+00  0.0000000000000E+00
234  2.3300000000000E+00  0.0000000000000E+00  0.0000000000000E+00
235  2.3400000000000E+00  0.0000000000000E+00  0.0000000000000E+00
236  2.3500000000000E+00  0.0000000000000E+00  0.0000000000000E+00
237  2.3600000000000E+00  0.0000000000000E+00  0.0000000000000E+00
238  2.3700000000000E+00  0.0000000000000E+00  0.0000000000000E+00
239  2.3800000000000E+00  0.0000000000000E+00  0.0000000000000E+00
240  2.3900000000000E+00  0.0000000000000E+00  0.0000000000000E+00
241  2.4000000000000E+00  0.0000000000000E+00  0.0000000000000E+00
242  2.4100000000000E+00  0.0000000000000E+00  0.0000000000000E+00
243  2.4200000000000E+00  0.0000000000000E+00  0.0000000000000E+00
244  2.4300000000000E+00  0.0000000000000E+00  0.0000000000000E+00
245  2.4400000000000E+00  0.0000000000000E+00  0.0000000000000E+00
246  2.4500000000000E+00  0.0000000000000E+00  0.0000000000000E+00
247  2.4600000000000E+00  0.0000000000000E+00  0.0000000000000E+00
248  2.4700000000000E+00  0.0000000000000E+00  0.0000000000000E+00
249  2.4800000000000E+00  0.0000000000000E+00  0.0000000000000E+00
250  2.4900000000000E+00  0.0000000000000E+00  0.0000000000000E+00
251  2.5000000000000E+00  0.0000000000000E+00  0.0000000000000E+00
252  2.5100000000000E+00  0.0000000000000E+00  0.0000000000000E+00
253  2.5200000000000E+00  0.0000000000000E+00  0.0000000000000E+00
254  2.5300000000000E+00  0.0000000000000E+00  0.0000000000000E+00
255  2.5400000000000E+00  0.0000000000000E+00  0.0000000000000E+00
256  2.5500000000000E+00  0.0000000000000E+00  0.0000000000000E+00
257  2.5600000000000E+00  0.0000000000000E+00  0.0000000000000E+00
258  2.5700000000000E+00  0.0000000000000E+00  0.0000000000000E+00
259  2.5800000000000E+00  0.0000000000000E+00  0.0000000000000E+00
260  2.5900000000000E+00  0.0000000000000E+00  0.0000000000000E+00
261  2.6000000000000E+00  0.0000000000000E+00  0.0000000000000E+00
262  2.6100000000000E+00  0.0000000000000E+00  0.0000000000000E+00
263  2.6200000000000E+00  0.0000000000000E+00  0.0000000000000E+00
264  2.6300000000000E+00  0.0000000000000E+00  0.0000000000000E+00
265  2.6400000000000E+00  0.0000000000000E+00  0.0000000000000E+00
266  2.6500000000000E+00  0.0000000000000E+00  0.0000000000000E+00
267  2.6600000000000E+00  0.0000000000000E+00  0.0000000000000E+00
268  2.6700000000000E+00  0.0000000000000E+00  0.0000000000000E+00
269  2.6800000000000E+00  0.0000000000000E+00  0.0000000000000E+00
270  2.6900000000000E+00  0.0000000000000E+00  0.0000000000000E+00
271  2.7000000000000E+00  0.0000000000000E+00  0.0000000000000E+00
272  2.7100000000000E+00  0.0000000000000E+00  0.0000000000000E+00
273  2.7200000000000E+00  0.0000000000000E+00  0.0000000000000E+00
274  2.7300000000000E+00  0.0000000000000E+00  0.0000000000000E+00
275  2.7400000000000E+00  0.0000000000000E+00  0.0000000000000E+00
276  2.7500000000000E+00  0.0000000000000E+00  0.0000000000000E+00
277  2.7600000000000E+00  0.0000000000000E+00  0.0000000000000E+00
278  2.7700000000000E+00  0.0000000000000E+00  0.0000000000000E+00
279  2.7800000000000E+00  0.0000000000000E+00  0.0000000000000E+00
280  2.7900000000000E+00  0.0000000000000E+00  0.0000000000000E+00
281  2.8000000000000E+00  0.0000000000000E+00  0.0000000000000E+00
282  2.8100000000000E+00  0.0000000000000E+00  0.0000000000000E+00
283  2.8200000000000E+00  0.0000000000000E+00  0.0000000000000E+00
284  2.8300000000000E+00  0.0000000000000E+00  0.0000000000000E+00
285  2.8400000000000E+00  0.0000000000000E+00  0.0000000000000E+00
286  2.8500000000000E+00  0.0000000000000E+00  0.0000000000000E+00
287  2.8600000000000E+00  0.0000000000000E+00  0.0000000000000E+00
288  2.8700000000000E+00  0.0000000000000E+00  0.0000000000000E+00
289  2.8800000000000E+00  0.0000000000000E+00  0.0000000000000E+00
290  2.8900000000000E+00  0.0000000000000E+00  0.0000000000000E+00
291  2.9000000000000E+00  0.0000000000000E+00  0.0000000000000E+00
292  2.9100000000000E+00  0.0000000000000E+00  0.0000000000000E+00
293  2.9200000000000E+00  0.0000000000000E+00  0.0000000000000E+00
294  2.9300000000000E+00  0.0000000000000E+00  0.0000000000000E+00
295  2.9400000000000E+00  0.0000000000000E+00  0.0000000000000E+00
296  2.9500000000000E+00  0.0000000000000E+00  0.0000000000000E+00
297  2.9600000000000E+00  0.0000000000000E+00  0.0000000000000E+00
298  2.9700000000000E+00  0.0000000000000E+00  0.0000000000000E+00
299  2.9800000000000E+00  0.0000000000000E+00  0.0000000000000E+00
300  2.9900000000000E+00  0.0000000000000E+00  0.0000000000000E+00
301  3.0000000000000E+00  0.0000000000000E+00  0.0000000000000E+00
302  3.0100000000000E+00  0.0000000000000E+00  0.0000000000000E+00
303  3.0200000000000E+00  0.0000000000000E+00  0.0000000000000E+00
304  3.0300000000000E+00  0.0000000000000E+00  0.0000000000000E+00
305  3.0400000000000E+00  0.0000000000000E+00  0.0000000000000E+00
306  3.0500000000000E+00  0.0000000000000E+00  0.0000000000000E+00
307  3.0600000000000E+00  0.0000000000000E+00  0.0000000000000E+00
308  3.0700000000000E+00  0.0000000000000E+00  0.0000000000000E+00
309  3.0800000000000E+00  0.0000000000000E+00  0.0000000000000E+00
310  3.0900000000000E+00  0.0000000000000E+00  0.0000000000000E+00
311  3.1000000000000E+00  0.0000000000000E+00  0.0000000000000E+00
312  3.1100000000000E+00  0.0000000000000E+00  0.0000000000000E+00
313  3.1200000000000E+00  0.0000000000000E+00  0.0000000000000E+00
314  3.1300000000000E+00  0.0000000000000E+00  0.0000000000000E+00
315  3.1400000000000E+00  0.0000000000000E+00  0.0000000000000E+00
316  3.1500000000000E+00  0.0000000000000E+00  0.0000000000000E+00
317  3.1600000000000E+00  0.0000000000000E+00  0.0000000000000E+00
318  3.1700000000000E+00  0.0000000000000E+00  0.0000000000000E+00
319  3.1800000000000E+00  0.0000000000000E+00  0.0000000000000E+00
320  3.1900000000000E+00  0.0000000000000E+00  0.0000000000000E+00
321  3.2000000000000E+00  0.0000000000000E+00  0.0000000000000E+00
322  3.2100000000000E+00  0.0000000000000E+00  0.0000000000000E+00
323  3.2200000000000E+00  0.0000000000000E+00  0.0000000000000E+00
324  3.2300000000000E+00  0.0000000000000E+00  0.0000000000000E+00
325  3.2400000000000E+00  0.0000000000000E+00  0.0000000000000E+00
326  3.2500000000000E+00  0.0000000000000E+00  0.0000000000000E+00
327  3.2600000000000E+00  0.0000000000000E+00  0.0000000000000E+00
328  3.2700000000000E+00  0.0000000000000E+00  0.0000000000000E+00
329  3.2800000000000E+00  0.0000000000000E+00  0.0000000000000E+00
330  3.2900000000000E+00  0.0000000000000E+00  0.0000000000000E+00
331  3.3000000000000E+00  0.0000000000000E+00  0.0000000000000E+00
332  3.3100000000000E+00  0.0000000000000E+00  0.0000000000000E+00
333  3.3200000000000E+00  0.0000000000000E+00  0.0000000000000E+00
334  3.3300000000000E+00  0.0000000000000E+00  0.0000000000000E+00
335  3.3400000000000E+00  0.0000000000000E+00  0.0000000000000E+00
336  3.3500000000000E+00  0.0000000000000E+00  0.0000000000000E+00
337  3.3600000000000E+00  0.0000000000000E+00  0.0000000000000E+00
338  3.3700000000000E+00  0.0000000000000E+00  0.0000000000000E+00
339  3.3800000000000E+00  0.0000000000000E+00  0.0000000000000E+00
340  3.3900000000000E+00  0.0000000000000E+00  0.0000000000000E+00
341  3.4000000000000E+00  0.0000000000000E+00  0.0000000000000E+00
342  3.4100000000000E+00  0.0000000000000E+00  0.0000000000000E+00
343  3.4200000000000E+00  0.0000000000000E+00  0.0000000000000E+00
344  3.4300000000000E+00  0.0000000000000E+00  0.0000000000000E+00
345  3.4400000000000E+00  0.0000000000000E+00  0.0000000000000E+00
346  3.4500000000000E+00  0.0000000000000E+00  0.0000000000000E+00
347  3.4600000000000E+00  0.0000000000000E+00  0.0000000000000E+00
348  3.4700000000000E+00  0.0000000000000E+00  0.0000000000000E+00
349  3.4800000000000E+00  0.0000000000000E+00  0.0000000000000E+00
350  3.4900000000000E+00  0.0000000000000E+00  0.0000000000000E+00
351  3.5000000000000E+00  0.0000000000000E+00  0.0000000000000E+00
352  3.5100000000000E+00  0.0000000000000E+00  0.0000000000000E+00
353  3.5200000000000E+00  0.0000000000000E+00  0.0000000000000E+00
354  3.5300000000000E+00  0.0000000000000E+00  0.0000000000000E+00
355  3.5400000000000E+00  0.0000000000000E+00  0.0000000000000E+00
356  3.5500000000000E+00  0.0000000000000E+00  0.0000000000000E+00
357  3.5600000000000E+00  0.0000000000000E+00  0.0000000000000E+00
358  3.5700000000000E+00  0.0000000000000E+00  0.0000000000000E+00
359  3.5800000000000E+00  0.0000000000000E+00  0.0000000000000E+00
360  3.5900000000000E+00  0.0000000000000E+00  0.0000000000000E+00
361  3.6000000000000E+00  0.0000000000000E+00  0.0000000000000E+00
362  3.6100000000000E+00  0.0000000000000E+00  0.0000000000000E+00
363  3.6200000000000E+00  0.0000000000000E+00  0.0000000000000E+00
364  3.6300000000000E+00  0.0000000000000E+00  0.0000000000000E+00
365  3.6400000000000E+00  0.0000000000000E+00  0.0000000000000E+00
366  3.6500000000000E+00  0.0000000000000E+00  0.0000000000000E+00
367  3.6600000000000E+00  0.0000000000000E+00  0.0000000000000E+00
368  3.6700000000000E+00  0.0000000000000E+00  0.0000000000000E+00
369  3.6800000000000E+00  0.0000000000000E+00  0.0000000000000E+00
370  3.6900000000000E+00  0.0000000000000E+00  0.0000000000000E+00
371  3.7000000000000E+00  0.0000000000000E+00  0.0000000000000E+00
372  3.7100000000000E+00  0.0000000000000E+00  0.0000000000000E+00
373  3.7200000000000E+00  0.0000000000000E+00  0.0000000000000E+00
374  3.7300000000000E+00  0.0000000000000E+00  0.0000000000000E+00
375  3.7400000000000E+00  0.0000000000000E+00  0.0000000000000E+00
376  3.7500000000000E+00  0.0000000000000E+00  0.0000000000000E+00
377  3.7600000000000E+00  0.0000000000000E+00  0.0000000000000E+00
378  3.7700000000000E+00  0.0000000000000E+00  0.0000000000000E+00
379  3.7800000000000E+00  0.0000000000000E+00  0.0000000000000E+00
380  3.7900000000000E+00  0.0000000000000E+00  0.0000000000000E+00
381  3.8000000000000E+00  0.0000000000000E+00  0.0000000000000E+00
382  3.8100000000000E+00  0.0000000000000E+00  0.0000000000000E+00
383  3.8200000000000E+00  0.0000000000000E+00  0.0000000000000E+00
384  3.8300000000000E+00  0.0000000000000E+00  0.0000000000000E+00
385  3.8400000000000E+00  0.0000000000000E+00  0.0000000000000E+00
386  3.8500000000000E+00  0.0000000000000E+00  0.0000000000000E+00
387  3.8600000000000E+00  0.0000000000000E+00  0.0000000000000E+00
388  3.8700000000000E+00  0.0000000000000E+00  0.0000000000000E+00
389  3.8800000000000E+00  0.0000000000000E+00  0.0000000000000E+00
390  3.8900000000000E+00  0.0000000000000E+00  0.0000000000000E+00
391  3.9000000000000E+00  0.0000000000000E+00  0.0000000000000E+00
392  3.9100000000000E+00  0.0000000000000E+00  0.0000000000000E+00
393  3.9200000000000E+00  0.0000000000000E+00  0.0000000000000E+00
394  3.9300000000000E+00  0.0000000000000E+00  0.0000000000000E+00
395  3.9400000000000E+00  0.0000000000000E+00  0.0000000000000E+00
396  3.9500000000000E+00  0.0000000000000E+00  0.0000000000000E+00
397  3.9600000000000E+00  0.0000000000000E+00  0.0000000000000E+00
398  3.9700000000000E+00  0.0000000000000E+00  0.0000000000000E+00
399  3.9800000000000E+00  0.0000000000000E+00  0.0000000000000E+00
400  3.9900000000000E+00  0.0000000000000E+00  0.0000000000000E+00
401  4.0000000000000E+00  0.0000000000000E+00  0.0000000000000E+00
402  4.0100000000000E+00  0.0000000000000E+00  0.0000000000000E+00
403  4.0200000000000E+00  0.0000000000000E+00  0.0000000000000E+00
404  4.0300000000000E+00  0.0000000000000E+00  0.0000000000000E+00
405  4.0400000000000E+00  0.0000000000000E+00  0.0000000000000E+00
406  4.0500000000000E+00  0.0000000000000E+00  0.0000000000000E+00
407  4.0600000000000E+00  0.0000000000000E+00  0.0000000000000E+00
408  4.0700000000000E+00  0.0000000000000E+00  0.0000000000000E+00
409  4.0800000000000E+00  0.0000000000000E+00  0.0000000000000E+00
410  4.0900000000000E+00  0.0000000000000E+00  0.0000000000000E+00
411  4.1000000000000E+00  0.0000000000000E+00  0.0000000000000E+00
412  4.1100000000000E+00  0.0000000000000E+00  0.0000000000000E+00
413  4.1200000000000E+00  0.0000000000000E+00  0.0000000000000E+00
414  4.1300000000000E+00  0.0000000000000E+00  0.0000000000000E+00
415  4.1400000000000E+00  0.0000000000000E+00  0.0000000000000E+00
416  4.1500000000000E+00  0.0000000000000E+00  0.0000000000000E+00
417  4.1600000000000E+00  0.0000000000000E+00  0.0000000000000E+00
418  4.1700000000000E+00  0.0000000000000E+00  0.0000000000000E+00
419  4.1800000000000E+00  0.0000000000000E+00  0.0000000000000E+00
420  4.1900000000000E+00  0.0000000000000E+00  0.0000000000000E+00
421  4.2000000000000E+00  0.0000000000000E+00  0.0000000000000E+00
422  4.2100000000000E+00  0.0000000000000E+00  0.0000000000000E+00
423  4.2200000000000E+00  0.0000000000000E+00  0.0000000000000E+00
424  4.2300000000000E+00  0.0000000000000E+00  0.0000000000000E+00
425  4.2400000000000E+00  0.0000000000000E+00  0.0000000000000E+00
426  4.2500000000000E+00  0.0000000000000E+00  0.0000000000000E+00
427  4.2600000000000E+00  0.0000000000000E+00  0.0000000000000E+00
428  4.2700000000000E+00  0.0000000000000E+00  0.0000000000000E+00
429  4.2800000000000E+00  0.0000000000000E+00  0.0000000000000E+00
430  4.2900000000000E+00  0.0000000000000E+00  0.0000000000000E+00
431  4.3000000000000E+00  0.0000000000000E+00  0.0000000000000E+00
432  4.3100000000000E+00  0.0000000000000E+00  0.0000000000000E+00
433  4.3200000000000E+00  0.0000000000000E+00  0.0000000000000E+00
434  4.3300000000000E+00  0.0000000000000E+00  0.0000000000000E+00
435  4.3400000000000E+00  0.0000000000000E+00  0.0000000000000E+00
436  4.3500000000000E+00  0.0000000000000E+00  0.0000000000000E+00
437  4.3600000000000E+00  0.0000000000000E+00  0.0000000000000E+00
438  4.3700000000000E+00  0.0000000000000E+00  0.0000000000000E+00
439  4.3800000000000E+00  0.0000000000000E+00  0.0000000000000E+00
440  4.3900000000000E+00  0.0000000000000E+00  0.0000000000000E+00
441  4.4000000000000E+00  0.0000000000000E+00  0.0000000000000E+00
442  4.4100000000000E+00  0.0000000000000E+00  0.0000000000000E+00
443  4.4200000000000E+00  0.0000000000000E+00  0.0000000000000E+00