Zr    ONCVPSP-3.2.3.1  r_core=   1.56507   1.56507   1.51006
40.0000     12.0000      170510    zatom,zion,pspd
8      11   2     4   600     0    pspcod,pspxc,lmax,lloc,mmax,r2well
5.99000000  5.00000000  0.00000000    rchrg fchrg qchrg
2     2     2     0     0    nproj
1     1           extension_switch
0                         1.0621765718668E+01  8.9880508871646E-01
1  0.0000000000000E+00 -2.0984181059447E-10  1.0275461315157E-09
2  1.0000000000000E-02  5.6228127092672E-02 -3.2324371404682E-02
3  2.0000000000000E-02  1.1236253025658E-01 -6.4461595244351E-02
4  3.0000000000000E-02  1.6830987220355E-01 -9.6226198457525E-02
5  4.0000000000000E-02  2.2397758480598E-01 -1.2743603626752E-01
6  5.0000000000000E-02  2.7927424342992E-01 -1.5791390478417E-01
7  6.0000000000000E-02  3.3410992912247E-01 -1.8748909249557E-01
8  7.0000000000000E-02  3.8839657485440E-01 -2.1599885150126E-01
9  8.0000000000000E-02  4.4204829222907E-01 -2.4328977036603E-01
10  9.0000000000000E-02  4.9498167532563E-01 -2.6921903173411E-01
11  1.0000000000000E-01  5.4711607864610E-01 -2.9365553932139E-01
12  1.1000000000000E-01  5.9837386647778E-01 -3.1648090058045E-01
13  1.2000000000000E-01  6.4868063135986E-01 -3.3759025318867E-01
14  1.3000000000000E-01  6.9796537975222E-01 -3.5689292552034E-01
15  1.4000000000000E-01  7.4616068343901E-01 -3.7431292340515E-01
16  1.5000000000000E-01  7.9320279565471E-01 -3.8978923771993E-01
17  1.6000000000000E-01  8.3903173138969E-01 -4.0327596968161E-01
18  1.7000000000000E-01  8.8359131181041E-01 -4.1474227307605E-01
19  1.8000000000000E-01  9.2682917320920E-01 -4.2417211504188E-01
20  1.9000000000000E-01  9.6869674137445E-01 -4.3156385939936E-01
21  2.0000000000000E-01  1.0091491727376E+00 -4.3692967884180E-01
22  2.1000000000000E-01  1.0481452641021E+00 -4.4029480456217E-01
23  2.2000000000000E-01  1.0856473331869E+00 -4.4169662404064E-01
24  2.3000000000000E-01  1.1216210726127E+00 -4.4118363974211E-01
25  2.4000000000000E-01  1.1560353803279E+00 -4.3881430334091E-01
26  2.5000000000000E-01  1.1888621697917E+00 -4.3465574177727E-01
27  2.6000000000000E-01  1.2200761635193E+00 -4.2878239293416E-01
28  2.7000000000000E-01  1.2496546738253E+00 -4.2127456998552E-01
29  2.8000000000000E-01  1.2775773747886E+00 -4.1221697448752E-01
30  2.9000000000000E-01  1.3038260695900E+00 -4.0169717905147E-01
31  3.0000000000000E-01  1.3283844574496E+00 -3.8980410093627E-01
32  3.1000000000000E-01  1.3512379044085E+00 -3.7662648812394E-01
33  3.2000000000000E-01  1.3723732221563E+00 -3.6225143938722E-01
34  3.3000000000000E-01  1.3917784590072E+00 -3.4676297952223E-01
35  3.4000000000000E-01  1.4094427069702E+00 -3.3024071030487E-01
36  3.5000000000000E-01  1.4253559286439E+00 -3.1275855684065E-01
37  3.6000000000000E-01  1.4395088073985E+00 -2.9438362782482E-01
38  3.7000000000000E-01  1.4518926239901E+00 -2.7517520682351E-01
39  3.8000000000000E-01  1.4624991623813E+00 -2.5518389004464E-01
40  3.9000000000000E-01  1.4713206471343E+00 -2.3445088420625E-01
41  4.0000000000000E-01  1.4783497142923E+00 -2.1300747605286E-01
42  4.1000000000000E-01  1.4835794171801E+00 -1.9087468284089E-01
43  4.2000000000000E-01  1.4870032680451E+00 -1.6806309073908E-01
44  4.3000000000000E-01  1.4886153159284E+00 -1.4457288559725E-01
45  4.4000000000000E-01  1.4884102606059E+00 -1.2039407795861E-01
46  4.5000000000000E-01  1.4863836018877E+00 -9.5506921557349E-02
47  4.6000000000000E-01  1.4825318230053E+00 -6.9882521888404E-02
48  4.7000000000000E-01  1.4768526062690E+00 -4.3483628793621E-02
49  4.8000000000000E-01  1.4693450786422E+00 -1.6265604411193E-02
50  4.9000000000000E-01  1.4600100843633E+00  1.1822444682463E-02
51  5.0000000000000E-01  1.4488504812603E+00  4.0836384714815E-02
52  5.1000000000000E-01  1.4358714569524E+00  7.0835637180962E-02
53  5.2000000000000E-01  1.4210808607177E+00  1.0188164445289E-01
54  5.3000000000000E-01  1.4044895464485E+00  1.3403623834138E-01
55  5.4000000000000E-01  1.3861117217973E+00  1.6735993306983E-01
56  5.5000000000000E-01  1.3659652983700E+00  2.0191016551844E-01
57  5.6000000000000E-01  1.3440722376244E+00  2.3773950672052E-01
58  5.7000000000000E-01  1.3204588870108E+00  2.7489386942323E-01
59  5.8000000000000E-01  1.2951563008291E+00  3.1341073704780E-01
60  5.9000000000000E-01  1.2682005402922E+00  3.5331743958914E-01
61  6.0000000000000E-01  1.2396329473657E+00  3.9462950187392E-01
62  6.1000000000000E-01  1.2095003871110E+00  4.3734908914700E-01
63  6.2000000000000E-01  1.1778554534833E+00  4.8146357418146E-01
64  6.3000000000000E-01  1.1447566338341E+00  5.2694424900486E-01
65  6.4000000000000E-01  1.1102684277256E+00  5.7374520293188E-01
66  6.5000000000000E-01  1.0744614160966E+00  6.2180238687432E-01
67  6.6000000000000E-01  1.0374122773021E+00  6.7103288191028E-01
68  6.7000000000000E-01  9.9920374709060E-01  7.2133438784788E-01
69  6.8000000000000E-01  9.5992452017299E-01  7.7258494501698E-01
70  6.9000000000000E-01  9.1966909167287E-01  8.2464289983124E-01
71  7.0000000000000E-01  8.7853753741152E-01  8.7734712178593E-01
72  7.1000000000000E-01  8.3663523268154E-01  9.3051747653669E-01
73  7.2000000000000E-01  7.9407250987906E-01  9.8395555656888E-01
74  7.3000000000000E-01  7.5096425609219E-01  1.0374456677740E+00
75  7.4000000000000E-01  7.0742945247584E-01  1.0907560670099E+00
76  7.5000000000000E-01  6.6359065796765E-01  1.1436404425011E+00
77  7.6000000000000E-01  6.1957344061029E-01  1.1958396257582E+00
78  7.7000000000000E-01  5.7550576043378E-01  1.2470835205978E+00
79  7.8000000000000E-01  5.3151730850413E-01  1.2970932318924E+00
80  7.9000000000000E-01  4.8773880735851E-01  1.3455833738778E+00
81  8.0000000000000E-01  4.4430127861152E-01  1.3922645352588E+00
82  8.1000000000000E-01  4.0133528402422E-01  1.4368458759935E+00
83  8.2000000000000E-01  3.5897014677158E-01  1.4790378285624E+00
84  8.3000000000000E-01  3.1733316001710E-01  1.5185548747381E+00
85  8.4000000000000E-01  2.7654879020147E-01  1.5551183674213E+00
86  8.5000000000000E-01  2.3673788266894E-01  1.5884593660005E+00
87  8.6000000000000E-01  1.9801687738819E-01  1.6183214529525E+00
88  8.7000000000000E-01  1.6049704256988E-01  1.6444634990453E+00
89  8.8000000000000E-01  1.2428373393969E-01  1.6666623445356E+00
90  8.9000000000000E-01  8.9475687292241E-02  1.6847153641859E+00
91  9.0000000000000E-01  5.6164351728491E-02  1.6984428847460E+00
92  9.1000000000000E-01  2.4433270668158E-02  1.7076904247626E+00
93  9.2000000000000E-01 -5.6424826679796E-03  1.7123307281754E+00
94  9.3000000000000E-01 -3.3996809089678E-02  1.7122655651172E+00
95  9.4000000000000E-01 -6.0573020922664E-02  1.7074272756471E+00
96  9.5000000000000E-01 -8.5324208115901E-02  1.6977800347721E+00
97  9.6000000000000E-01 -1.0821352863185E-01  1.6833208200380E+00
98  9.7000000000000E-01 -1.2921441952979E-01  1.6640800661459E+00
99  9.8000000000000E-01 -1.4831072596490E-01  1.6401219945122E+00
100  9.9000000000000E-01 -1.6549674614068E-01  1.6115446091739E+00
101  1.0000000000000E+00 -1.8077719115333E-01  1.5784793543065E+00
102  1.0100000000000E+00 -1.9416705954547E-01  1.5410904323970E+00
103  1.0200000000000E+00 -2.0569142729215E-01  1.4995737860214E+00
104  1.0300000000000E+00 -2.1538515484614E-01  1.4541557500732E+00
105  1.0400000000000E+00 -2.2329251377238E-01  1.4050913851974E+00
106  1.0500000000000E+00 -2.2946673636068E-01  1.3526625068980E+00
107  1.0600000000000E+00 -2.3396949243702E-01  1.2971754283936E+00
108  1.0700000000000E+00 -2.3687029843047E-01  1.2389584389173E+00
109  1.0800000000000E+00 -2.3824586445708E-01  1.1783590422131E+00
110  1.0900000000000E+00 -2.3817938589738E-01  1.1157409830833E+00
111  1.1000000000000E+00 -2.3675978652745E-01  1.0514810923649E+00
112  1.1100000000000E+00 -2.3408092081475E-01  9.8596598310298E-01
113  1.1200000000000E+00 -2.3024074346161E-01  9.1958863272256E-01
114  1.1300000000000E+00 -2.2534045460853E-01  8.5274488741657E-01
115  1.1400000000000E+00 -2.1948362937591E-01  7.8582992610124E-01
116  1.1500000000000E+00 -2.1277534059866E-01  7.1923472203393E-01
117  1.1600000000000E+00 -2.0532128368047E-01  6.5334254046175E-01
118  1.1700000000000E+00 -1.9722691241479E-01  5.8852551028568E-01
119  1.1800000000000E+00 -1.8859659447965E-01  5.2514130707046E-01
120  1.1900000000000E+00 -1.7953279513405E-01  4.6352998390340E-01
121  1.2000000000000E+00 -1.7013529720483E-01  4.0401098462646E-01
122  1.2100000000000E+00 -1.6050046493070E-01  3.4688037162053E-01
123  1.2200000000000E+00 -1.5072055900467E-01  2.9240829930638E-01
124  1.2300000000000E+00 -1.4088310918551E-01  2.4083676018099E-01
125  1.2400000000000E+00 -1.3107035018348E-01  1.9237762723989E-01
126  1.2500000000000E+00 -1.2135872602503E-01  1.4721101440071E-01
127  1.2600000000000E+00 -1.1181846706446E-01  1.0548397191537E-01
128  1.2700000000000E+00 -1.0251324267586E-01  6.7309528708122E-02
129  1.2800000000000E+00 -9.3499892241531E-02  3.2766091717751E-02
130  1.2900000000000E+00 -8.4828235886390E-02  1.8972071258360E-03
131  1.3000000000000E+00 -7.6540964919190E-02 -2.5288318262159E-02
132  1.3100000000000E+00 -6.8673611877952E-02 -4.8815937498137E-02
133  1.3200000000000E+00 -6.1254598536287E-02 -6.8744534701367E-02
134  1.3300000000000E+00 -5.4305358796214E-02 -8.5165262202519E-02
135  1.3400000000000E+00 -4.7840533814896E-02 -9.8200056961696E-02
136  1.3500000000000E+00 -4.1868234451658E-02 -1.0799985962714E-01
137  1.3600000000000E+00 -3.6390365541873E-02 -1.1474256213657E-01
138  1.3700000000000E+00 -3.1403006938811E-02 -1.1863070787380E-01
139  1.3800000000000E+00 -2.6896843453691E-02 -1.1988898077737E-01
140  1.3900000000000E+00 -2.2857637012378E-02 -1.1876151453676E-01
141  1.4000000000000E+00 -1.9266733016187E-02 -1.1550905891493E-01
142  1.4100000000000E+00 -1.6101590856201E-02 -1.1040605019961E-01
143  1.4200000000000E+00 -1.3336338214153E-02 -1.0373758222840E-01
144  1.4300000000000E+00 -1.0942308006070E-02 -9.5796486718810E-02
145  1.4400000000000E+00 -8.8886609446938E-03 -8.6879986326734E-02
146  1.4500000000000E+00 -7.1428510260622E-03 -7.7287154104211E-02
147  1.4600000000000E+00 -5.6710024686652E-03 -6.7316889427739E-02
148  1.4700000000000E+00 -4.4392325662717E-03 -5.7260816004588E-02
149  1.4800000000000E+00 -3.4148549885490E-03 -4.7396944912444E-02
150  1.4900000000000E+00 -2.5678217521460E-03 -3.7982328937157E-02
151  1.5000000000000E+00 -1.8716214029468E-03 -2.9248600245824E-02
152  1.5100000000000E+00 -1.3036182688940E-03 -2.1400539656133E-02
153  1.5200000000000E+00 -8.4586109676411E-04 -1.4619149475977E-02
154  1.5300000000000E+00 -4.8410153862726E-04 -9.0206164336560E-03
155  1.5400000000000E+00 -2.1075626134276E-04 -4.7262007036407E-03
156  1.5500000000000E+00 -2.4153932322685E-05 -1.9461058330545E-03
157  1.5600000000000E+00  7.2830666266162E-05 -5.7657910563126E-04
158  1.5700000000000E+00  7.4198462427473E-05 -8.5029472223711E-05
159  1.5800000000000E+00  1.9926540508015E-05  6.2374828712762E-06
160  1.5900000000000E+00 -1.1202657008901E-05 -9.3284802253913E-06
161  1.6000000000000E+00 -4.4544325663712E-06 -5.3235402569666E-06
162  1.6100000000000E+00  2.4416009642154E-06  6.8650978920934E-07
163  1.6200000000000E+00  7.7106742273301E-07  3.4562625201827E-07
164  1.6300000000000E+00 -2.4000064253716E-07  7.1878977008569E-07
165  1.6400000000000E+00 -5.7419376949693E-08  1.7196812608426E-07
166  1.6500000000000E+00  0.0000000000000E+00  0.0000000000000E+00
167  1.6600000000000E+00  0.0000000000000E+00  0.0000000000000E+00
168  1.6700000000000E+00  0.0000000000000E+00  0.0000000000000E+00
169  1.6800000000000E+00  0.0000000000000E+00  0.0000000000000E+00
170  1.6900000000000E+00  0.0000000000000E+00  0.0000000000000E+00
171  1.7000000000000E+00  0.0000000000000E+00  0.0000000000000E+00
172  1.7100000000000E+00  0.0000000000000E+00  0.0000000000000E+00
173  1.7200000000000E+00  0.0000000000000E+00  0.0000000000000E+00
174  1.7300000000000E+00  0.0000000000000E+00  0.0000000000000E+00
175  1.7400000000000E+00  0.0000000000000E+00  0.0000000000000E+00
176  1.7500000000000E+00  0.0000000000000E+00  0.0000000000000E+00
177  1.7600000000000E+00  0.0000000000000E+00  0.0000000000000E+00
178  1.7700000000000E+00  0.0000000000000E+00  0.0000000000000E+00
179  1.7800000000000E+00  0.0000000000000E+00  0.0000000000000E+00
180  1.7900000000000E+00  0.0000000000000E+00  0.0000000000000E+00
181  1.8000000000000E+00  0.0000000000000E+00  0.0000000000000E+00
182  1.8100000000000E+00  0.0000000000000E+00  0.0000000000000E+00
183  1.8200000000000E+00  0.0000000000000E+00  0.0000000000000E+00
184  1.8300000000000E+00  0.0000000000000E+00  0.0000000000000E+00
185  1.8400000000000E+00  0.0000000000000E+00  0.0000000000000E+00
186  1.8500000000000E+00  0.0000000000000E+00  0.0000000000000E+00
187  1.8600000000000E+00  0.0000000000000E+00  0.0000000000000E+00
188  1.8700000000000E+00  0.0000000000000E+00  0.0000000000000E+00
189  1.8800000000000E+00  0.0000000000000E+00  0.0000000000000E+00
190  1.8900000000000E+00  0.0000000000000E+00  0.0000000000000E+00
191  1.9000000000000E+00  0.0000000000000E+00  0.0000000000000E+00
192  1.9100000000000E+00  0.0000000000000E+00  0.0000000000000E+00
193  1.9200000000000E+00  0.0000000000000E+00  0.0000000000000E+00
194  1.9300000000000E+00  0.0000000000000E+00  0.0000000000000E+00
195  1.9400000000000E+00  0.0000000000000E+00  0.0000000000000E+00
196  1.9500000000000E+00  0.0000000000000E+00  0.0000000000000E+00
197  1.9600000000000E+00  0.0000000000000E+00  0.0000000000000E+00
198  1.9700000000000E+00  0.0000000000000E+00  0.0000000000000E+00
199  1.9800000000000E+00  0.0000000000000E+00  0.0000000000000E+00
200  1.9900000000000E+00  0.0000000000000E+00  0.0000000000000E+00
201  2.0000000000000E+00  0.0000000000000E+00  0.0000000000000E+00
202  2.0100000000000E+00  0.0000000000000E+00  0.0000000000000E+00
203  2.0200000000000E+00  0.0000000000000E+00  0.0000000000000E+00
204  2.0300000000000E+00  0.0000000000000E+00  0.0000000000000E+00
205  2.0400000000000E+00  0.0000000000000E+00  0.0000000000000E+00
206  2.0500000000000E+00  0.0000000000000E+00  0.0000000000000E+00
207  2.0600000000000E+00  0.0000000000000E+00  0.0000000000000E+00
208  2.0700000000000E+00  0.0000000000000E+00  0.0000000000000E+00
209  2.0800000000000E+00  0.0000000000000E+00  0.0000000000000E+00
210  2.0900000000000E+00  0.0000000000000E+00  0.0000000000000E+00
211  2.1000000000000E+00  0.0000000000000E+00  0.0000000000000E+00
212  2.1100000000000E+00  0.0000000000000E+00  0.0000000000000E+00
213  2.1200000000000E+00  0.0000000000000E+00  0.0000000000000E+00
214  2.1300000000000E+00  0.0000000000000E+00  0.0000000000000E+00
215  2.1400000000000E+00  0.0000000000000E+00  0.0000000000000E+00
216  2.1500000000000E+00  0.0000000000000E+00  0.0000000000000E+00
217  2.1600000000000E+00  0.0000000000000E+00  0.0000000000000E+00
218  2.1700000000000E+00  0.0000000000000E+00  0.0000000000000E+00
219  2.1800000000000E+00  0.0000000000000E+00  0.0000000000000E+00
220  2.1900000000000E+00  0.0000000000000E+00  0.0000000000000E+00
221  2.2000000000000E+00  0.0000000000000E+00  0.0000000000000E+00
222  2.2100000000000E+00  0.0000000000000E+00  0.0000000000000E+00
223  2.2200000000000E+00  0.0000000000000E+00  0.0000000000000E+00
224  2.2300000000000E+00  0.0000000000000E+00  0.0000000000000E+00
225  2.2400000000000E+00  0.0000000000000E+00  0.0000000000000E+00
226  2.2500000000000E+00  0.0000000000000E+00  0.0000000000000E+00
227  2.2600000000000E+00  0.0000000000000E+00  0.0000000000000E+00
228  2.2700000000000E+00  0.0000000000000E+00  0.0000000000000E+00
229  2.2800000000000E+00  0.0000000000000E+00  0.0000000000000E+00
230  2.2900000000000E+00  0.0000000000000E+00  0.0000000000000E+00
231  2.3000000000000E+00  0.0000000000000E+00  0.0000000000000E+00
232  2.3100000000000E+00  0.0000000000000E+00  0.0000000000000E+00
233  2.3200000000000E+00  0.0000000000000E+00  0.0000000000000E+00
234  2.3300000000000E+00  0.0000000000000E+00  0.0000000000000E+00
235  2.3400000000000E+00  0.0000000000000E+00  0.0000000000000E+00
236  2.3500000000000E+00  0.0000000000000E+00  0.0000000000000E+00
237  2.3600000000000E+00  0.0000000000000E+00  0.0000000000000E+00
238  2.3700000000000E+00  0.0000000000000E+00  0.0000000000000E+00
239  2.3800000000000E+00  0.0000000000000E+00  0.0000000000000E+00
240  2.3900000000000E+00  0.0000000000000E+00  0.0000000000000E+00
241  2.4000000000000E+00  0.0000000000000E+00  0.0000000000000E+00
242  2.4100000000000E+00  0.0000000000000E+00  0.0000000000000E+00
243  2.4200000000000E+00  0.0000000000000E+00  0.0000000000000E+00
244  2.4300000000000E+00  0.0000000000000E+00  0.0000000000000E+00
245  2.4400000000000E+00  0.0000000000000E+00  0.0000000000000E+00
246  2.4500000000000E+00  0.0000000000000E+00  0.0000000000000E+00
247  2.4600000000000E+00  0.0000000000000E+00  0.0000000000000E+00
248  2.4700000000000E+00  0.0000000000000E+00  0.0000000000000E+00
249  2.4800000000000E+00  0.0000000000000E+00  0.0000000000000E+00
250  2.4900000000000E+00  0.0000000000000E+00  0.0000000000000E+00
251  2.5000000000000E+00  0.0000000000000E+00  0.0000000000000E+00
252  2.5100000000000E+00  0.0000000000000E+00  0.0000000000000E+00
253  2.5200000000000E+00  0.0000000000000E+00  0.0000000000000E+00
254  2.5300000000000E+00  0.0000000000000E+00  0.0000000000000E+00
255  2.5400000000000E+00  0.0000000000000E+00  0.0000000000000E+00
256  2.5500000000000E+00  0.0000000000000E+00  0.0000000000000E+00
257  2.5600000000000E+00  0.0000000000000E+00  0.0000000000000E+00
258  2.5700000000000E+00  0.0000000000000E+00  0.0000000000000E+00
259  2.5800000000000E+00  0.0000000000000E+00  0.0000000000000E+00
260  2.5900000000000E+00  0.0000000000000E+00  0.0000000000000E+00
261  2.6000000000000E+00  0.0000000000000E+00  0.0000000000000E+00
262  2.6100000000000E+00  0.0000000000000E+00  0.0000000000000E+00
263  2.6200000000000E+00  0.0000000000000E+00  0.0000000000000E+00
264  2.6300000000000E+00  0.0000000000000E+00  0.0000000000000E+00
265  2.6400000000000E+00  0.0000000000000E+00  0.0000000000000E+00
266  2.6500000000000E+00  0.0000000000000E+00  0.0000000000000E+00
267  2.6600000000000E+00  0.0000000000000E+00  0.0000000000000E+00
268  2.6700000000000E+00  0.0000000000000E+00  0.0000000000000E+00
269  2.6800000000000E+00  0.0000000000000E+00  0.0000000000000E+00
270  2.6900000000000E+00  0.0000000000000E+00  0.0000000000000E+00
271  2.7000000000000E+00  0.0000000000000E+00  0.0000000000000E+00
272  2.7100000000000E+00  0.0000000000000E+00  0.0000000000000E+00
273  2.7200000000000E+00  0.0000000000000E+00  0.0000000000000E+00
274  2.7300000000000E+00  0.0000000000000E+00  0.0000000000000E+00
275  2.7400000000000E+00  0.0000000000000E+00  0.0000000000000E+00
276  2.7500000000000E+00  0.0000000000000E+00  0.0000000000000E+00
277  2.7600000000000E+00  0.0000000000000E+00  0.0000000000000E+00
278  2.7700000000000E+00  0.0000000000000E+00  0.0000000000000E+00
279  2.7800000000000E+00  0.0000000000000E+00  0.0000000000000E+00
280  2.7900000000000E+00  0.0000000000000E+00  0.0000000000000E+00
281  2.8000000000000E+00  0.0000000000000E+00  0.0000000000000E+00
282  2.8100000000000E+00  0.0000000000000E+00  0.0000000000000E+00
283  2.8200000000000E+00  0.0000000000000E+00  0.0000000000000E+00
284  2.8300000000000E+00  0.0000000000000E+00  0.0000000000000E+00
285  2.8400000000000E+00  0.0000000000000E+00  0.0000000000000E+00
286  2.8500000000000E+00  0.0000000000000E+00  0.0000000000000E+00
287  2.8600000000000E+00  0.0000000000000E+00  0.0000000000000E+00
288  2.8700000000000E+00  0.0000000000000E+00  0.0000000000000E+00
289  2.8800000000000E+00  0.0000000000000E+00  0.0000000000000E+00
290  2.8900000000000E+00  0.0000000000000E+00  0.0000000000000E+00
291  2.9000000000000E+00  0.0000000000000E+00  0.0000000000000E+00
292  2.9100000000000E+00  0.0000000000000E+00  0.0000000000000E+00
293  2.9200000000000E+00  0.0000000000000E+00  0.0000000000000E+00
294  2.9300000000000E+00  0.0000000000000E+00  0.0000000000000E+00
295  2.9400000000000E+00  0.0000000000000E+00  0.0000000000000E+00
296  2.9500000000000E+00  0.0000000000000E+00  0.0000000000000E+00
297  2.9600000000000E+00  0.0000000000000E+00  0.0000000000000E+00
298  2.9700000000000E+00  0.0000000000000E+00  0.0000000000000E+00
299  2.9800000000000E+00  0.0000000000000E+00  0.0000000000000E+00
300  2.9900000000000E+00  0.0000000000000E+00  0.0000000000000E+00
301  3.0000000000000E+00  0.0000000000000E+00  0.0000000000000E+00
302  3.0100000000000E+00  0.0000000000000E+00  0.0000000000000E+00
303  3.0200000000000E+00  0.0000000000000E+00  0.0000000000000E+00
304  3.0300000000000E+00  0.0000000000000E+00  0.0000000000000E+00
305  3.0400000000000E+00  0.0000000000000E+00  0.0000000000000E+00
306  3.0500000000000E+00  0.0000000000000E+00  0.0000000000000E+00
307  3.0600000000000E+00  0.0000000000000E+00  0.0000000000000E+00
308  3.0700000000000E+00  0.0000000000000E+00  0.0000000000000E+00
309  3.0800000000000E+00  0.0000000000000E+00  0.0000000000000E+00
310  3.0900000000000E+00  0.0000000000000E+00  0.0000000000000E+00
311  3.1000000000000E+00  0.0000000000000E+00  0.0000000000000E+00
312  3.1100000000000E+00  0.0000000000000E+00  0.0000000000000E+00
313  3.1200000000000E+00  0.0000000000000E+00  0.0000000000000E+00
314  3.1300000000000E+00  0.0000000000000E+00  0.0000000000000E+00
315  3.1400000000000E+00  0.0000000000000E+00  0.0000000000000E+00
316  3.1500000000000E+00  0.0000000000000E+00  0.0000000000000E+00
317  3.1600000000000E+00  0.0000000000000E+00  0.0000000000000E+00
318  3.1700000000000E+00  0.0000000000000E+00  0.0000000000000E+00
319  3.1800000000000E+00  0.0000000000000E+00  0.0000000000000E+00
320  3.1900000000000E+00  0.0000000000000E+00  0.0000000000000E+00
321  3.2000000000000E+00  0.0000000000000E+00  0.0000000000000E+00
322  3.2100000000000E+00  0.0000000000000E+00  0.0000000000000E+00
323  3.2200000000000E+00  0.0000000000000E+00  0.0000000000000E+00
324  3.2300000000000E+00  0.0000000000000E+00  0.0000000000000E+00
325  3.2400000000000E+00  0.0000000000000E+00  0.0000000000000E+00
326  3.2500000000000E+00  0.0000000000000E+00  0.0000000000000E+00
327  3.2600000000000E+00  0.0000000000000E+00  0.0000000000000E+00
328  3.2700000000000E+00  0.0000000000000E+00  0.0000000000000E+00
329  3.2800000000000E+00  0.0000000000000E+00  0.0000000000000E+00
330  3.2900000000000E+00  0.0000000000000E+00  0.0000000000000E+00
331  3.3000000000000E+00  0.0000000000000E+00  0.0000000000000E+00
332  3.3100000000000E+00  0.0000000000000E+00  0.0000000000000E+00
333  3.3200000000000E+00  0.0000000000000E+00  0.0000000000000E+00
334  3.3300000000000E+00  0.0000000000000E+00  0.0000000000000E+00
335  3.3400000000000E+00  0.0000000000000E+00  0.0000000000000E+00
336  3.3500000000000E+00  0.0000000000000E+00  0.0000000000000E+00
337  3.3600000000000E+00  0.0000000000000E+00  0.0000000000000E+00
338  3.3700000000000E+00  0.0000000000000E+00  0.0000000000000E+00
339  3.3800000000000E+00  0.0000000000000E+00  0.0000000000000E+00
340  3.3900000000000E+00  0.0000000000000E+00  0.0000000000000E+00
341  3.4000000000000E+00  0.0000000000000E+00  0.0000000000000E+00
342  3.4100000000000E+00  0.0000000000000E+00  0.0000000000000E+00
343  3.4200000000000E+00  0.0000000000000E+00  0.0000000000000E+00
344  3.4300000000000E+00  0.0000000000000E+00  0.0000000000000E+00
345  3.4400000000000E+00  0.0000000000000E+00  0.0000000000000E+00
346  3.4500000000000E+00  0.0000000000000E+00  0.0000000000000E+00
347  3.4600000000000E+00  0.0000000000000E+00  0.0000000000000E+00
348  3.4700000000000E+00  0.0000000000000E+00  0.0000000000000E+00
349  3.4800000000000E+00  0.0000000000000E+00  0.0000000000000E+00
350  3.4900000000000E+00  0.0000000000000E+00  0.0000000000000E+00
351  3.5000000000000E+00  0.0000000000000E+00  0.0000000000000E+00
352  3.5100000000000E+00  0.0000000000000E+00  0.0000000000000E+00
353  3.5200000000000E+00  0.0000000000000E+00  0.0000000000000E+00
354  3.5300000000000E+00  0.0000000000000E+00  0.0000000000000E+00
355  3.5400000000000E+00  0.0000000000000E+00  0.0000000000000E+00
356  3.5500000000000E+00  0.0000000000000E+00  0.0000000000000E+00
357  3.5600000000000E+00  0.0000000000000E+00  0.0000000000000E+00
358  3.5700000000000E+00  0.0000000000000E+00  0.0000000000000E+00
359  3.5800000000000E+00  0.0000000000000E+00  0.0000000000000E+00
360  3.5900000000000E+00  0.0000000000000E+00  0.0000000000000E+00
361  3.6000000000000E+00  0.0000000000000E+00  0.0000000000000E+00
362  3.6100000000000E+00  0.0000000000000E+00  0.0000000000000E+00
363  3.6200000000000E+00  0.0000000000000E+00  0.0000000000000E+00
364  3.6300000000000E+00  0.0000000000000E+00  0.0000000000000E+00
365  3.6400000000000E+00  0.0000000000000E+00  0.0000000000000E+00
366  3.6500000000000E+00  0.0000000000000E+00  0.0000000000000E+00
367  3.6600000000000E+00  0.0000000000000E+00  0.0000000000000E+00
368  3.6700000000000E+00  0.0000000000000E+00  0.0000000000000E+00
369  3.6800000000000E+00  0.0000000000000E+00  0.0000000000000E+00
370  3.6900000000000E+00  0.0000000000000E+00  0.0000000000000E+00
371  3.7000000000000E+00  0.0000000000000E+00  0.0000000000000E+00
372  3.7100000000000E+00  0.0000000000000E+00  0.0000000000000E+00
373  3.7200000000000E+00  0.0000000000000E+00  0.0000000000000E+00
374  3.7300000000000E+00  0.0000000000000E+00  0.0000000000000E+00
375  3.7400000000000E+00  0.0000000000000E+00  0.0000000000000E+00
376  3.7500000000000E+00  0.0000000000000E+00  0.0000000000000E+00
377  3.7600000000000E+00  0.0000000000000E+00  0.0000000000000E+00
378  3.7700000000000E+00  0.0000000000000E+00  0.0000000000000E+00
379  3.7800000000000E+00  0.0000000000000E+00  0.0000000000000E+00
380  3.7900000000000E+00  0.0000000000000E+00  0.0000000000000E+00
381  3.8000000000000E+00  0.0000000000000E+00  0.0000000000000E+00
382  3.8100000000000E+00  0.0000000000000E+00  0.0000000000000E+00
383  3.8200000000000E+00  0.0000000000000E+00  0.0000000000000E+00
384  3.8300000000000E+00  0.0000000000000E+00  0.0000000000000E+00
385  3.8400000000000E+00  0.0000000000000E+00  0.0000000000000E+00
386  3.8500000000000E+00  0.0000000000000E+00  0.0000000000000E+00
387  3.8600000000000E+00  0.0000000000000E+00  0.0000000000000E+00
388  3.8700000000000E+00  0.0000000000000E+00  0.0000000000000E+00
389  3.8800000000000E+00  0.0000000000000E+00  0.0000000000000E+00
390  3.8900000000000E+00  0.0000000000000E+00  0.0000000000000E+00
391  3.9000000000000E+00  0.0000000000000E+00  0.0000000000000E+00
392  3.9100000000000E+00  0.0000000000000E+00  0.0000000000000E+00
393  3.9200000000000E+00  0.0000000000000E+00  0.0000000000000E+00
394  3.9300000000000E+00  0.0000000000000E+00  0.0000000000000E+00
395  3.9400000000000E+00  0.0000000000000E+00  0.0000000000000E+00
396  3.9500000000000E+00  0.0000000000000E+00  0.0000000000000E+00
397  3.9600000000000E+00  0.0000000000000E+00  0.0000000000000E+00
398  3.9700000000000E+00  0.0000000000000E+00  0.0000000000000E+00
399  3.9800000000000E+00  0.0000000000000E+00  0.0000000000000E+00
400  3.9900000000000E+00  0.0000000000000E+00  0.0000000000000E+00
401  4.0000000000000E+00  0.0000000000000E+00  0.0000000000000E+00
402  4.0100000000000E+00  0.0000000000000E+00  0.0000000000000E+00
403  4.0200000000000E+00  0.0000000000000E+00  0.0000000000000E+00
404  4.0300000000000E+00  0.0000000000000E+00  0.0000000000000E+00
405  4.0400000000000E+00  0.0000000000000E+00  0.0000000000000E+00
406  4.0500000000000E+00  0.0000000000000E+00  0.0000000000000E+00
407  4.0600000000000E+00  0.0000000000000E+00  0.0000000000000E+00
408  4.0700000000000E+00  0.0000000000000E+00  0.0000000000000E+00
409  4.0800000000000E+00  0.0000000000000E+00  0.0000000000000E+00
410  4.0900000000000E+00  0.0000000000000E+00  0.0000000000000E+00
411  4.1000000000000E+00  0.0000000000000E+00  0.0000000000000E+00
412  4.1100000000000E+00  0.0000000000000E+00  0.0000000000000E+00
413  4.1200000000000E+00  0.0000000000000E+00  0.0000000000000E+00
414  4.1300000000000E+00  0.0000000000000E+00  0.0000000000000E+00
415  4.1400000000000E+00  0.0000000000000E+00  0.0000000000000E+00
416  4.1500000000000E+00  0.0000000000000E+00  0.0000000000000E+00
417  4.1600000000000E+00  0.0000000000000E+00  0.0000000000000E+00
418  4.1700000000000E+00  0.0000000000000E+00  0.0000000000000E+00
419  4.1800000000000E+00  0.0000000000000E+00  0.0000000000000E+00
420  4.1900000000000E+00  0.0000000000000E+00  0.0000000000000E+00
421  4.2000000000000E+00  0.0000000000000E+00  0.0000000000000E+00
422  4.2100000000000E+00  0.0000000000000E+00  0.0000000000000E+00
423  4.2200000000000E+00  0.0000000000000E+00  0.0000000000000E+00
424  4.2300000000000E+00  0.0000000000000E+00  0.0000000000000E+00
425  4.2400000000000E+00  0.0000000000000E+00  0.0000000000000E+00
426  4.2500000000000E+00  0.0000000000000E+00  0.0000000000000E+00
427  4.2600000000000E+00  0.0000000000000E+00  0.0000000000000E+00
428  4.2700000000000E+00  0.0000000000000E+00  0.0000000000000E+00
429  4.2800000000000E+00  0.0000000000000E+00  0.0000000000000E+00
430  4.2900000000000E+00  0.0000000000000E+00  0.0000000000000E+00
431  4.3000000000000E+00  0.0000000000000E+00  0.0000000000000E+00
432  4.3100000000000E+00  0.0000000000000E+00  0.0000000000000E+00
433  4.3200000000000E+00  0.0000000000000E+00  0.0000000000000E+00
434  4.3300000000000E+00  0.0000000000000E+00  0.0000000000000E+00
435  4.3400000000000E+00  0.0000000000000E+00  0.0000000000000E+00
436  4.3500000000000E+00  0.0000000000000E+00  0.0000000000000E+00
437  4.3600000000000E+00  0.0000000000000E+00  0.0000000000000E+00
438  4.3700000000000E+00  0.0000000000000E+00  0.0000000000000E+00
439  4.3800000000000E+00  0.0000000000000E+00  0.0000000000000E+00
440  4.3900000000000E+00  0.0000000000000E+00  0.0000000000000E+00
441  4.4000000000000E+00  0.0000000000000E+00  0.0000000000000E+00
442  4.4100000000000E+00  0.0000000000000E+00  0.0000000000000E+00
443  4.4200000000000E+00  0.0000000000000E+00  0.0000000000000E+00