Tc    ONCVPSP-3.2.3.1  r_core=   1.40470   1.40470   1.35532
43.0000     15.0000      170510    zatom,zion,pspd
8      11   2     4   600     0    pspcod,pspxc,lmax,lloc,mmax,r2well
5.99000000  5.00000000  0.00000000    rchrg fchrg qchrg
2     2     2     0     0    nproj
1     1           extension_switch
0                         1.4512624761359E+01  1.4552829648563E+00
1  0.0000000000000E+00 -3.5112007745752E-10  1.7477755076545E-09
2  1.0000000000000E-02  6.0178680575833E-02 -3.1816397263500E-02
3  2.0000000000000E-02  1.2026705345594E-01 -6.3454025692042E-02
4  3.0000000000000E-02  1.8017508350847E-01 -9.4735830278903E-02
5  4.0000000000000E-02  2.3981327615330E-01 -1.2548815613778E-01
6  5.0000000000000E-02  2.9909293628917E-01 -1.5554238017690E-01
7  6.0000000000000E-02  3.5792641385731E-01 -1.8473646197417E-01
8  7.0000000000000E-02  4.1622733200720E-01 -2.1291638900727E-01
9  8.0000000000000E-02  4.7391079418117E-01 -2.3993749314042E-01
10  9.0000000000000E-02  5.3089356686253E-01 -2.6566561740379E-01
11  1.0000000000000E-01  5.8709423522909E-01 -2.8997811459062E-01
12  1.1000000000000E-01  6.4243332951222E-01 -3.1276466200077E-01
13  1.2000000000000E-01  6.9683342047174E-01 -3.3392787973762E-01
14  1.3000000000000E-01  7.5021918304791E-01 -3.5338374326715E-01
15  1.4000000000000E-01  8.0251742793297E-01 -3.7106178442559E-01
16  1.5000000000000E-01  8.5365710150384E-01 -3.8690507865855E-01
17  1.6000000000000E-01  9.0356925526269E-01 -4.0087001993468E-01
18  1.7000000000000E-01  9.5218698663006E-01 -4.1292588844327E-01
19  1.8000000000000E-01  9.9944535361423E-01 -4.2305421979720E-01
20  1.9000000000000E-01  1.0452812665270E+00 -4.3124798796456E-01
21  2.0000000000000E-01  1.0896333605184E+00 -4.3751061748469E-01
22  2.1000000000000E-01  1.1324418532504E+00 -4.4185484363315E-01
23  2.2000000000000E-01  1.1736483925064E+00 -4.4430144203266E-01
24  2.3000000000000E-01  1.2131958989399E+00 -4.4487785171366E-01
25  2.4000000000000E-01  1.2510284094761E+00 -4.4361671776574E-01
26  2.5000000000000E-01  1.2870909271080E+00 -4.4055438144846E-01
27  2.6000000000000E-01  1.3213292829440E+00 -4.3572934691509E-01
28  2.7000000000000E-01  1.3536900163829E+00 -4.2918075451711E-01
29  2.8000000000000E-01  1.3841202791974E+00 -4.2094689098078E-01
30  2.9000000000000E-01  1.4125677691010E+00 -4.1106376656682E-01
31  3.0000000000000E-01  1.4389806980598E+00 -3.9956378863385E-01
32  3.1000000000000E-01  1.4633078001840E+00 -3.8647455982913E-01
33  3.2000000000000E-01  1.4854983835051E+00 -3.7181782743515E-01
34  3.3000000000000E-01  1.5055024293143E+00 -3.5560860822743E-01
35  3.4000000000000E-01  1.5232707420148E+00 -3.3785451057152E-01
36  3.5000000000000E-01  1.5387551516353E+00 -3.1855527244083E-01
37  3.6000000000000E-01  1.5519087702716E+00 -2.9770253061168E-01
38  3.7000000000000E-01  1.5626863027830E+00 -2.7527983253424E-01
39  3.8000000000000E-01  1.5710444110827E+00 -2.5126289834336E-01
40  3.9000000000000E-01  1.5769421303380E+00 -2.2562013621881E-01
41  4.0000000000000E-01  1.5803413343599E+00 -1.9831340989498E-01
42  4.1000000000000E-01  1.5812072464186E+00 -1.6929905262251E-01
43  4.2000000000000E-01  1.5795089906976E+00 -1.3852911736913E-01
44  4.3000000000000E-01  1.5752201786071E+00 -1.0595284858664E-01
45  4.4000000000000E-01  1.5683195232328E+00 -7.1518356536768E-02
46  4.5000000000000E-01  1.5587914743214E+00 -3.5174471035385E-02
47  4.6000000000000E-01  1.5466268654090E+00  3.1272523889880E-03
48  4.7000000000000E-01  1.5318235640045E+00  4.3430404451239E-02
49  4.8000000000000E-01  1.5143871151550E+00  8.5771505830191E-02
50  4.9000000000000E-01  1.4943313682663E+00  1.3017773896230E-01
51  5.0000000000000E-01  1.4716790767293E+00  1.7666466635902E-01
52  5.1000000000000E-01  1.4464624597328E+00  2.2523397547717E-01
53  5.2000000000000E-01  1.4187237156265E+00  2.7587129114838E-01
54  5.3000000000000E-01  1.3885154763388E+00  3.2854409691637E-01
55  5.4000000000000E-01  1.3559011926669E+00  3.8319980632206E-01
56  5.5000000000000E-01  1.3209554407243E+00  4.3976402419906E-01
57  5.6000000000000E-01  1.2837641404713E+00  4.9813903640049E-01
58  5.7000000000000E-01  1.2444246780473E+00  5.5820256408011E-01
59  5.8000000000000E-01  1.2030459245734E+00  6.1980681570807E-01
60  5.9000000000000E-01  1.1597481451826E+00  6.8277786646633E-01
61  6.0000000000000E-01  1.1146627932613E+00  7.4691539054493E-01
62  6.1000000000000E-01  1.0679321862218E+00  8.1199276724517E-01
63  6.2000000000000E-01  1.0197090605699E+00  8.7775757670294E-01
64  6.3000000000000E-01  9.7015600555337E-01  9.4393249556860E-01
65  6.4000000000000E-01  9.1944477626377E-01  1.0102165972114E+00
66  6.5000000000000E-01  8.6775548869288E-01  1.0762870549731E+00
67  6.6000000000000E-01  8.1527570089060E-01  1.1418012408547E+00
68  6.7000000000000E-01  7.6219938600877E-01  1.2063992058109E+00
69  6.8000000000000E-01  7.0872580463145E-01  1.2697065216458E+00
70  6.9000000000000E-01  6.5505828534745E-01  1.3313374584856E+00
71  7.0000000000000E-01  6.0140292399660E-01  1.3908984660282E+00
72  7.1000000000000E-01  5.4796721340473E-01  1.4479919212884E+00
73  7.2000000000000E-01  4.9495861667261E-01  1.5022201005380E+00
74  7.3000000000000E-01  4.4258309819236E-01  1.5531893286098E+00
75  7.4000000000000E-01  3.9104362750889E-01  1.6005142547936E+00
76  7.5000000000000E-01  3.4053867190231E-01  1.6438222012903E+00
77  7.6000000000000E-01  2.9126069413269E-01  1.6827575276232E+00
78  7.7000000000000E-01  2.4339467213897E-01  1.7169859526540E+00
79  7.8000000000000E-01  1.9711665761662E-01  1.7461987748967E+00
80  7.9000000000000E-01  1.5259239030482E-01  1.7701169317350E+00
81  8.0000000000000E-01  1.0997598449007E-01  1.7884948389273E+00
82  8.1000000000000E-01  6.9408703679738E-02  1.8011239534399E+00
83  8.2000000000000E-01  3.1017838619724E-02  1.8078360051734E+00
84  8.3000000000000E-01 -5.0842971677015E-03  1.8085058465142E+00
85  8.4000000000000E-01 -3.8801241356686E-02  1.8030538728223E+00
86  8.5000000000000E-01 -7.0053114733004E-02  1.7914479718988E+00
87  8.6000000000000E-01 -9.8777201062537E-02  1.7737049661147E+00
88  8.7000000000000E-01 -1.2492836666006E-01  1.7498915171336E+00
89  8.8000000000000E-01 -1.4847931327700E-01  1.7201244699563E+00
90  8.9000000000000E-01 -1.6942065990773E-01  1.6845706202545E+00
91  9.0000000000000E-01 -1.8776085117843E-01  1.6434458965329E+00
92  9.1000000000000E-01 -2.0352589209991E-01  1.5970139564700E+00
93  9.2000000000000E-01 -2.1675891110821E-01  1.5455842047071E+00
94  9.3000000000000E-01 -2.2751955545153E-01  1.4895092472736E+00
95  9.4000000000000E-01 -2.3588322507921E-01  1.4291818056277E+00
96  9.5000000000000E-01 -2.4194015321667E-01  1.3650311208431E+00
97  9.6000000000000E-01 -2.4579434373899E-01  1.2975188856554E+00
98  9.7000000000000E-01 -2.4756237725561E-01  1.2271347487902E+00
99  9.8000000000000E-01 -2.4737209946745E-01  1.1543914421367E+00
100  9.9000000000000E-01 -2.4536120681608E-01  1.0798195867543E+00
101  1.0000000000000E+00 -2.4167574569338E-01  1.0039622383306E+00
102  1.0100000000000E+00 -2.3646854254285E-01  9.2736923663232E-01
103  1.0200000000000E+00 -2.2989758294761E-01  8.5059142627135E-01
104  1.0300000000000E+00 -2.2212435835040E-01  7.7417481808201E-01
105  1.0400000000000E+00 -2.1331219932664E-01  6.9865476131571E-01
106  1.0500000000000E+00 -2.0362461430184E-01  6.2455019660473E-01
107  1.0600000000000E+00 -1.9322365240301E-01  5.5235805874322E-01
108  1.0700000000000E+00 -1.8226830852469E-01  4.8254789583813E-01
109  1.0800000000000E+00 -1.7091298793068E-01  4.1555676833810E-01
110  1.0900000000000E+00 -1.5930604664725E-01  3.5178448721200E-01
111  1.1000000000000E+00 -1.4758842253636E-01  2.9158924515159E-01
112  1.1100000000000E+00 -1.3589237067526E-01  2.3528368970414E-01
113  1.1200000000000E+00 -1.2434031462819E-01  1.8313147923765E-01
114  1.1300000000000E+00 -1.1304382359107E-01  1.3534435636371E-01
115  1.1400000000000E+00 -1.0210272302809E-01  9.2079764222192E-02
116  1.1500000000000E+00 -9.1604344935061E-02  5.3439025240548E-02
117  1.1600000000000E+00 -8.1622920861829E-02  1.9466090291805E-02
118  1.1700000000000E+00 -7.2219117673221E-02 -9.8531480785341E-03
119  1.1800000000000E+00 -6.3439714749518E-02 -3.4590985381461E-02
120  1.1900000000000E+00 -5.5317470768661E-02 -5.4877237223241E-02
121  1.2000000000000E+00 -4.7870964786692E-02 -7.0898871331122E-02
122  1.2100000000000E+00 -4.1104736183506E-02 -8.2898279095330E-02
123  1.2200000000000E+00 -3.5011052662803E-02 -9.1163005601155E-02
124  1.2300000000000E+00 -2.9572123273422E-02 -9.6014033487241E-02
125  1.2400000000000E+00 -2.4762197992441E-02 -9.7795317601124E-02
126  1.2500000000000E+00 -2.0548467012601E-02 -9.6870130288142E-02
127  1.2600000000000E+00 -1.6892345528848E-02 -9.3615425221266E-02
128  1.2700000000000E+00 -1.3750757908953E-02 -8.8416316440912E-02
129  1.2800000000000E+00 -1.1077461016487E-02 -8.1660434266346E-02
130  1.2900000000000E+00 -8.8243729642471E-03 -7.3732305631181E-02
131  1.3000000000000E+00 -6.9428958666495E-03 -6.5007790935629E-02
132  1.3100000000000E+00 -5.3852119281315E-03 -5.5848660316208E-02
133  1.3200000000000E+00 -4.1055323973679E-03 -4.6597389545308E-02
134  1.3300000000000E+00 -3.0612826604209E-03 -3.7572239762830E-02
135  1.3400000000000E+00 -2.2142083387727E-03 -2.9062677478135E-02
136  1.3500000000000E+00 -1.5313796308564E-03 -2.1325228246655E-02
137  1.3600000000000E+00 -9.8622568946704E-04 -1.4583439592804E-02
138  1.3700000000000E+00 -5.5865904653300E-04 -9.0082941874033E-03
139  1.3800000000000E+00 -2.3653369248218E-04 -4.7101395906105E-03
140  1.3900000000000E+00 -1.5709535779268E-05 -1.9158454380305E-03
141  1.4000000000000E+00  9.8886673042871E-05 -5.9388909589706E-04
142  1.4100000000000E+00  8.7127697713993E-05 -1.2596247562302E-04
143  1.4200000000000E+00  1.0305477202668E-05 -4.9407373383945E-06
144  1.4300000000000E+00 -1.4101785548841E-05  1.5842952153874E-06
145  1.4400000000000E+00  9.5106115834226E-07 -6.6243641674791E-07
146  1.4500000000000E+00  2.5753618041686E-06 -1.3930787954040E-06
147  1.4600000000000E+00 -2.3062163225748E-07  6.5550541160750E-07
148  1.4700000000000E+00 -1.6836832936996E-07  4.7856027192673E-07
149  1.4800000000000E+00  0.0000000000000E+00  0.0000000000000E+00
150  1.4900000000000E+00  0.0000000000000E+00  0.0000000000000E+00
151  1.5000000000000E+00  0.0000000000000E+00  0.0000000000000E+00
152  1.5100000000000E+00  0.0000000000000E+00  0.0000000000000E+00
153  1.5200000000000E+00  0.0000000000000E+00  0.0000000000000E+00
154  1.5300000000000E+00  0.0000000000000E+00  0.0000000000000E+00
155  1.5400000000000E+00  0.0000000000000E+00  0.0000000000000E+00
156  1.5500000000000E+00  0.0000000000000E+00  0.0000000000000E+00
157  1.5600000000000E+00  0.0000000000000E+00  0.0000000000000E+00
158  1.5700000000000E+00  0.0000000000000E+00  0.0000000000000E+00
159  1.5800000000000E+00  0.0000000000000E+00  0.0000000000000E+00
160  1.5900000000000E+00  0.0000000000000E+00  0.0000000000000E+00
161  1.6000000000000E+00  0.0000000000000E+00  0.0000000000000E+00
162  1.6100000000000E+00  0.0000000000000E+00  0.0000000000000E+00
163  1.6200000000000E+00  0.0000000000000E+00  0.0000000000000E+00
164  1.6300000000000E+00  0.0000000000000E+00  0.0000000000000E+00
165  1.6400000000000E+00  0.0000000000000E+00  0.0000000000000E+00
166  1.6500000000000E+00  0.0000000000000E+00  0.0000000000000E+00
167  1.6600000000000E+00  0.0000000000000E+00  0.0000000000000E+00
168  1.6700000000000E+00  0.0000000000000E+00  0.0000000000000E+00
169  1.6800000000000E+00  0.0000000000000E+00  0.0000000000000E+00
170  1.6900000000000E+00  0.0000000000000E+00  0.0000000000000E+00
171  1.7000000000000E+00  0.0000000000000E+00  0.0000000000000E+00
172  1.7100000000000E+00  0.0000000000000E+00  0.0000000000000E+00
173  1.7200000000000E+00  0.0000000000000E+00  0.0000000000000E+00
174  1.7300000000000E+00  0.0000000000000E+00  0.0000000000000E+00
175  1.7400000000000E+00  0.0000000000000E+00  0.0000000000000E+00
176  1.7500000000000E+00  0.0000000000000E+00  0.0000000000000E+00
177  1.7600000000000E+00  0.0000000000000E+00  0.0000000000000E+00
178  1.7700000000000E+00  0.0000000000000E+00  0.0000000000000E+00
179  1.7800000000000E+00  0.0000000000000E+00  0.0000000000000E+00
180  1.7900000000000E+00  0.0000000000000E+00  0.0000000000000E+00
181  1.8000000000000E+00  0.0000000000000E+00  0.0000000000000E+00
182  1.8100000000000E+00  0.0000000000000E+00  0.0000000000000E+00
183  1.8200000000000E+00  0.0000000000000E+00  0.0000000000000E+00
184  1.8300000000000E+00  0.0000000000000E+00  0.0000000000000E+00
185  1.8400000000000E+00  0.0000000000000E+00  0.0000000000000E+00
186  1.8500000000000E+00  0.0000000000000E+00  0.0000000000000E+00
187  1.8600000000000E+00  0.0000000000000E+00  0.0000000000000E+00
188  1.8700000000000E+00  0.0000000000000E+00  0.0000000000000E+00
189  1.8800000000000E+00  0.0000000000000E+00  0.0000000000000E+00
190  1.8900000000000E+00  0.0000000000000E+00  0.0000000000000E+00
191  1.9000000000000E+00  0.0000000000000E+00  0.0000000000000E+00
192  1.9100000000000E+00  0.0000000000000E+00  0.0000000000000E+00
193  1.9200000000000E+00  0.0000000000000E+00  0.0000000000000E+00
194  1.9300000000000E+00  0.0000000000000E+00  0.0000000000000E+00
195  1.9400000000000E+00  0.0000000000000E+00  0.0000000000000E+00
196  1.9500000000000E+00  0.0000000000000E+00  0.0000000000000E+00
197  1.9600000000000E+00  0.0000000000000E+00  0.0000000000000E+00
198  1.9700000000000E+00  0.0000000000000E+00  0.0000000000000E+00
199  1.9800000000000E+00  0.0000000000000E+00  0.0000000000000E+00
200  1.9900000000000E+00  0.0000000000000E+00  0.0000000000000E+00
201  2.0000000000000E+00  0.0000000000000E+00  0.0000000000000E+00
202  2.0100000000000E+00  0.0000000000000E+00  0.0000000000000E+00
203  2.0200000000000E+00  0.0000000000000E+00  0.0000000000000E+00
204  2.0300000000000E+00  0.0000000000000E+00  0.0000000000000E+00
205  2.0400000000000E+00  0.0000000000000E+00  0.0000000000000E+00
206  2.0500000000000E+00  0.0000000000000E+00  0.0000000000000E+00
207  2.0600000000000E+00  0.0000000000000E+00  0.0000000000000E+00
208  2.0700000000000E+00  0.0000000000000E+00  0.0000000000000E+00
209  2.0800000000000E+00  0.0000000000000E+00  0.0000000000000E+00
210  2.0900000000000E+00  0.0000000000000E+00  0.0000000000000E+00
211  2.1000000000000E+00  0.0000000000000E+00  0.0000000000000E+00
212  2.1100000000000E+00  0.0000000000000E+00  0.0000000000000E+00
213  2.1200000000000E+00  0.0000000000000E+00  0.0000000000000E+00
214  2.1300000000000E+00  0.0000000000000E+00  0.0000000000000E+00
215  2.1400000000000E+00  0.0000000000000E+00  0.0000000000000E+00
216  2.1500000000000E+00  0.0000000000000E+00  0.0000000000000E+00
217  2.1600000000000E+00  0.0000000000000E+00  0.0000000000000E+00
218  2.1700000000000E+00  0.0000000000000E+00  0.0000000000000E+00
219  2.1800000000000E+00  0.0000000000000E+00  0.0000000000000E+00
220  2.1900000000000E+00  0.0000000000000E+00  0.0000000000000E+00
221  2.2000000000000E+00  0.0000000000000E+00  0.0000000000000E+00
222  2.2100000000000E+00  0.0000000000000E+00  0.0000000000000E+00
223  2.2200000000000E+00  0.0000000000000E+00  0.0000000000000E+00
224  2.2300000000000E+00  0.0000000000000E+00  0.0000000000000E+00
225  2.2400000000000E+00  0.0000000000000E+00  0.0000000000000E+00
226  2.2500000000000E+00  0.0000000000000E+00  0.0000000000000E+00
227  2.2600000000000E+00  0.0000000000000E+00  0.0000000000000E+00
228  2.2700000000000E+00  0.0000000000000E+00  0.0000000000000E+00
229  2.2800000000000E+00  0.0000000000000E+00  0.0000000000000E+00
230  2.2900000000000E+00  0.0000000000000E+00  0.0000000000000E+00
231  2.3000000000000E+00  0.0000000000000E+00  0.0000000000000E+00
232  2.3100000000000E+00  0.0000000000000E+00  0.0000000000000E+00
233  2.3200000000000E+00  0.0000000000000E+00  0.0000000000000E+00
234  2.3300000000000E+00  0.0000000000000E+00  0.0000000000000E+00
235  2.3400000000000E+00  0.0000000000000E+00  0.0000000000000E+00
236  2.3500000000000E+00  0.0000000000000E+00  0.0000000000000E+00
237  2.3600000000000E+00  0.0000000000000E+00  0.0000000000000E+00
238  2.3700000000000E+00  0.0000000000000E+00  0.0000000000000E+00
239  2.3800000000000E+00  0.0000000000000E+00  0.0000000000000E+00
240  2.3900000000000E+00  0.0000000000000E+00  0.0000000000000E+00
241  2.4000000000000E+00  0.0000000000000E+00  0.0000000000000E+00
242  2.4100000000000E+00  0.0000000000000E+00  0.0000000000000E+00
243  2.4200000000000E+00  0.0000000000000E+00  0.0000000000000E+00
244  2.4300000000000E+00  0.0000000000000E+00  0.0000000000000E+00
245  2.4400000000000E+00  0.0000000000000E+00  0.0000000000000E+00
246  2.4500000000000E+00  0.0000000000000E+00  0.0000000000000E+00
247  2.4600000000000E+00  0.0000000000000E+00  0.0000000000000E+00
248  2.4700000000000E+00  0.0000000000000E+00  0.0000000000000E+00
249  2.4800000000000E+00  0.0000000000000E+00  0.0000000000000E+00
250  2.4900000000000E+00  0.0000000000000E+00  0.0000000000000E+00
251  2.5000000000000E+00  0.0000000000000E+00  0.0000000000000E+00
252  2.5100000000000E+00  0.0000000000000E+00  0.0000000000000E+00
253  2.5200000000000E+00  0.0000000000000E+00  0.0000000000000E+00
254  2.5300000000000E+00  0.0000000000000E+00  0.0000000000000E+00
255  2.5400000000000E+00  0.0000000000000E+00  0.0000000000000E+00
256  2.5500000000000E+00  0.0000000000000E+00  0.0000000000000E+00
257  2.5600000000000E+00  0.0000000000000E+00  0.0000000000000E+00
258  2.5700000000000E+00  0.0000000000000E+00  0.0000000000000E+00
259  2.5800000000000E+00  0.0000000000000E+00  0.0000000000000E+00
260  2.5900000000000E+00  0.0000000000000E+00  0.0000000000000E+00
261  2.6000000000000E+00  0.0000000000000E+00  0.0000000000000E+00
262  2.6100000000000E+00  0.0000000000000E+00  0.0000000000000E+00
263  2.6200000000000E+00  0.0000000000000E+00  0.0000000000000E+00
264  2.6300000000000E+00  0.0000000000000E+00  0.0000000000000E+00
265  2.6400000000000E+00  0.0000000000000E+00  0.0000000000000E+00
266  2.6500000000000E+00  0.0000000000000E+00  0.0000000000000E+00
267  2.6600000000000E+00  0.0000000000000E+00  0.0000000000000E+00
268  2.6700000000000E+00  0.0000000000000E+00  0.0000000000000E+00
269  2.6800000000000E+00  0.0000000000000E+00  0.0000000000000E+00
270  2.6900000000000E+00  0.0000000000000E+00  0.0000000000000E+00
271  2.7000000000000E+00  0.0000000000000E+00  0.0000000000000E+00
272  2.7100000000000E+00  0.0000000000000E+00  0.0000000000000E+00
273  2.7200000000000E+00  0.0000000000000E+00  0.0000000000000E+00
274  2.7300000000000E+00  0.0000000000000E+00  0.0000000000000E+00
275  2.7400000000000E+00  0.0000000000000E+00  0.0000000000000E+00
276  2.7500000000000E+00  0.0000000000000E+00  0.0000000000000E+00
277  2.7600000000000E+00  0.0000000000000E+00  0.0000000000000E+00
278  2.7700000000000E+00  0.0000000000000E+00  0.0000000000000E+00
279  2.7800000000000E+00  0.0000000000000E+00  0.0000000000000E+00
280  2.7900000000000E+00  0.0000000000000E+00  0.0000000000000E+00
281  2.8000000000000E+00  0.0000000000000E+00  0.0000000000000E+00
282  2.8100000000000E+00  0.0000000000000E+00  0.0000000000000E+00
283  2.8200000000000E+00  0.0000000000000E+00  0.0000000000000E+00
284  2.8300000000000E+00  0.0000000000000E+00  0.0000000000000E+00
285  2.8400000000000E+00  0.0000000000000E+00  0.0000000000000E+00
286  2.8500000000000E+00  0.0000000000000E+00  0.0000000000000E+00
287  2.8600000000000E+00  0.0000000000000E+00  0.0000000000000E+00
288  2.8700000000000E+00  0.0000000000000E+00  0.0000000000000E+00
289  2.8800000000000E+00  0.0000000000000E+00  0.0000000000000E+00
290  2.8900000000000E+00  0.0000000000000E+00  0.0000000000000E+00
291  2.9000000000000E+00  0.0000000000000E+00  0.0000000000000E+00
292  2.9100000000000E+00  0.0000000000000E+00  0.0000000000000E+00
293  2.9200000000000E+00  0.0000000000000E+00  0.0000000000000E+00
294  2.9300000000000E+00  0.0000000000000E+00  0.0000000000000E+00
295  2.9400000000000E+00  0.0000000000000E+00  0.0000000000000E+00
296  2.9500000000000E+00  0.0000000000000E+00  0.0000000000000E+00
297  2.9600000000000E+00  0.0000000000000E+00  0.0000000000000E+00
298  2.9700000000000E+00  0.0000000000000E+00  0.0000000000000E+00
299  2.9800000000000E+00  0.0000000000000E+00  0.0000000000000E+00
300  2.9900000000000E+00  0.0000000000000E+00  0.0000000000000E+00
301  3.0000000000000E+00  0.0000000000000E+00  0.0000000000000E+00
302  3.0100000000000E+00  0.0000000000000E+00  0.0000000000000E+00
303  3.0200000000000E+00  0.0000000000000E+00  0.0000000000000E+00
304  3.0300000000000E+00  0.0000000000000E+00  0.0000000000000E+00
305  3.0400000000000E+00  0.0000000000000E+00  0.0000000000000E+00
306  3.0500000000000E+00  0.0000000000000E+00  0.0000000000000E+00
307  3.0600000000000E+00  0.0000000000000E+00  0.0000000000000E+00
308  3.0700000000000E+00  0.0000000000000E+00  0.0000000000000E+00
309  3.0800000000000E+00  0.0000000000000E+00  0.0000000000000E+00
310  3.0900000000000E+00  0.0000000000000E+00  0.0000000000000E+00
311  3.1000000000000E+00  0.0000000000000E+00  0.0000000000000E+00
312  3.1100000000000E+00  0.0000000000000E+00  0.0000000000000E+00
313  3.1200000000000E+00  0.0000000000000E+00  0.0000000000000E+00
314  3.1300000000000E+00  0.0000000000000E+00  0.0000000000000E+00
315  3.1400000000000E+00  0.0000000000000E+00  0.0000000000000E+00
316  3.1500000000000E+00  0.0000000000000E+00  0.0000000000000E+00
317  3.1600000000000E+00  0.0000000000000E+00  0.0000000000000E+00
318  3.1700000000000E+00  0.0000000000000E+00  0.0000000000000E+00
319  3.1800000000000E+00  0.0000000000000E+00  0.0000000000000E+00
320  3.1900000000000E+00  0.0000000000000E+00  0.0000000000000E+00
321  3.2000000000000E+00  0.0000000000000E+00  0.0000000000000E+00
322  3.2100000000000E+00  0.0000000000000E+00  0.0000000000000E+00
323  3.2200000000000E+00  0.0000000000000E+00  0.0000000000000E+00
324  3.2300000000000E+00  0.0000000000000E+00  0.0000000000000E+00
325  3.2400000000000E+00  0.0000000000000E+00  0.0000000000000E+00
326  3.2500000000000E+00  0.0000000000000E+00  0.0000000000000E+00
327  3.2600000000000E+00  0.0000000000000E+00  0.0000000000000E+00
328  3.2700000000000E+00  0.0000000000000E+00  0.0000000000000E+00
329  3.2800000000000E+00  0.0000000000000E+00  0.0000000000000E+00
330  3.2900000000000E+00  0.0000000000000E+00  0.0000000000000E+00
331  3.3000000000000E+00  0.0000000000000E+00  0.0000000000000E+00
332  3.3100000000000E+00  0.0000000000000E+00  0.0000000000000E+00
333  3.3200000000000E+00  0.0000000000000E+00  0.0000000000000E+00
334  3.3300000000000E+00  0.0000000000000E+00  0.0000000000000E+00
335  3.3400000000000E+00  0.0000000000000E+00  0.0000000000000E+00
336  3.3500000000000E+00  0.0000000000000E+00  0.0000000000000E+00
337  3.3600000000000E+00  0.0000000000000E+00  0.0000000000000E+00
338  3.3700000000000E+00  0.0000000000000E+00  0.0000000000000E+00
339  3.3800000000000E+00  0.0000000000000E+00  0.0000000000000E+00
340  3.3900000000000E+00  0.0000000000000E+00  0.0000000000000E+00
341  3.4000000000000E+00  0.0000000000000E+00  0.0000000000000E+00
342  3.4100000000000E+00  0.0000000000000E+00  0.0000000000000E+00
343  3.4200000000000E+00  0.0000000000000E+00  0.0000000000000E+00
344  3.4300000000000E+00  0.0000000000000E+00  0.0000000000000E+00
345  3.4400000000000E+00  0.0000000000000E+00  0.0000000000000E+00
346  3.4500000000000E+00  0.0000000000000E+00  0.0000000000000E+00
347  3.4600000000000E+00  0.0000000000000E+00  0.0000000000000E+00
348  3.4700000000000E+00  0.0000000000000E+00  0.0000000000000E+00
349  3.4800000000000E+00  0.0000000000000E+00  0.0000000000000E+00
350  3.4900000000000E+00  0.0000000000000E+00  0.0000000000000E+00
351  3.5000000000000E+00  0.0000000000000E+00  0.0000000000000E+00
352  3.5100000000000E+00  0.0000000000000E+00  0.0000000000000E+00
353  3.5200000000000E+00  0.0000000000000E+00  0.0000000000000E+00
354  3.5300000000000E+00  0.0000000000000E+00  0.0000000000000E+00
355  3.5400000000000E+00  0.0000000000000E+00  0.0000000000000E+00
356  3.5500000000000E+00  0.0000000000000E+00  0.0000000000000E+00
357  3.5600000000000E+00  0.0000000000000E+00  0.0000000000000E+00
358  3.5700000000000E+00  0.0000000000000E+00  0.0000000000000E+00
359  3.5800000000000E+00  0.0000000000000E+00  0.0000000000000E+00
360  3.5900000000000E+00  0.0000000000000E+00  0.0000000000000E+00
361  3.6000000000000E+00  0.0000000000000E+00  0.0000000000000E+00
362  3.6100000000000E+00  0.0000000000000E+00  0.0000000000000E+00
363  3.6200000000000E+00  0.0000000000000E+00  0.0000000000000E+00
364  3.6300000000000E+00  0.0000000000000E+00  0.0000000000000E+00
365  3.6400000000000E+00  0.0000000000000E+00  0.0000000000000E+00
366  3.6500000000000E+00  0.0000000000000E+00  0.0000000000000E+00
367  3.6600000000000E+00  0.0000000000000E+00  0.0000000000000E+00
368  3.6700000000000E+00  0.0000000000000E+00  0.0000000000000E+00
369  3.6800000000000E+00  0.0000000000000E+00  0.0000000000000E+00
370  3.6900000000000E+00  0.0000000000000E+00  0.0000000000000E+00
371  3.7000000000000E+00  0.0000000000000E+00  0.0000000000000E+00
372  3.7100000000000E+00  0.0000000000000E+00  0.0000000000000E+00
373  3.7200000000000E+00  0.0000000000000E+00  0.0000000000000E+00
374  3.7300000000000E+00  0.0000000000000E+00  0.0000000000000E+00
375  3.7400000000000E+00  0.0000000000000E+00  0.0000000000000E+00
376  3.7500000000000E+00  0.0000000000000E+00  0.0000000000000E+00
377  3.7600000000000E+00  0.0000000000000E+00  0.0000000000000E+00
378  3.7700000000000E+00  0.0000000000000E+00  0.0000000000000E+00
379  3.7800000000000E+00  0.0000000000000E+00  0.0000000000000E+00
380  3.7900000000000E+00  0.0000000000000E+00  0.0000000000000E+00
381  3.8000000000000E+00  0.0000000000000E+00  0.0000000000000E+00
382  3.8100000000000E+00  0.0000000000000E+00  0.0000000000000E+00
383  3.8200000000000E+00  0.0000000000000E+00  0.0000000000000E+00
384  3.8300000000000E+00  0.0000000000000E+00  0.0000000000000E+00
385  3.8400000000000E+00  0.0000000000000E+00  0.0000000000000E+00
386  3.8500000000000E+00  0.0000000000000E+00  0.0000000000000E+00
387  3.8600000000000E+00  0.0000000000000E+00  0.0000000000000E+00
388  3.8700000000000E+00  0.0000000000000E+00  0.0000000000000E+00
389  3.8800000000000E+00  0.0000000000000E+00  0.0000000000000E+00
390  3.8900000000000E+00  0.0000000000000E+00  0.0000000000000E+00
391  3.9000000000000E+00  0.0000000000000E+00  0.0000000000000E+00
392  3.9100000000000E+00  0.0000000000000E+00  0.0000000000000E+00
393  3.9200000000000E+00  0.0000000000000E+00  0.0000000000000E+00
394  3.9300000000000E+00  0.0000000000000E+00  0.0000000000000E+00
395  3.9400000000000E+00  0.0000000000000E+00  0.0000000000000E+00
396  3.9500000000000E+00  0.0000000000000E+00  0.0000000000000E+00
397  3.9600000000000E+00  0.0000000000000E+00  0.0000000000000E+00
398  3.9700000000000E+00  0.0000000000000E+00  0.0000000000000E+00
399  3.9800000000000E+00  0.0000000000000E+00  0.0000000000000E+00
400  3.9900000000000E+00  0.0000000000000E+00  0.0000000000000E+00
401  4.0000000000000E+00  0.0000000000000E+00  0.0000000000000E+00
402  4.0100000000000E+00  0.0000000000000E+00  0.0000000000000E+00
403  4.0200000000000E+00  0.0000000000000E+00  0.0000000000000E+00
404  4.0300000000000E+00  0.0000000000000E+00  0.0000000000000E+00
405  4.0400000000000E+00  0.0000000000000E+00  0.0000000000000E+00
406  4.0500000000000E+00  0.0000000000000E+00  0.0000000000000E+00
407  4.0600000000000E+00  0.0000000000000E+00  0.0000000000000E+00
408  4.0700000000000E+00  0.0000000000000E+00  0.0000000000000E+00
409  4.0800000000000E+00  0.0000000000000E+00  0.0000000000000E+00
410  4.0900000000000E+00  0.0000000000000E+00  0.0000000000000E+00
411  4.1000000000000E+00  0.0000000000000E+00  0.0000000000000E+00
412  4.1100000000000E+00  0.0000000000000E+00  0.0000000000000E+00
413  4.1200000000000E+00  0.0000000000000E+00  0.0000000000000E+00
414  4.1300000000000E+00  0.0000000000000E+00  0.0000000000000E+00
415  4.1400000000000E+00  0.0000000000000E+00  0.0000000000000E+00
416  4.1500000000000E+00  0.0000000000000E+00  0.0000000000000E+00
417  4.1600000000000E+00  0.0000000000000E+00  0.0000000000000E+00
418  4.1700000000000E+00  0.0000000000000E+00  0.0000000000000E+00
419  4.1800000000000E+00  0.0000000000000E+00  0.0000000000000E+00
420  4.1900000000000E+00  0.0000000000000E+00  0.0000000000000E+00
421  4.2000000000000E+00  0.0000000000000E+00  0.0000000000000E+00
422  4.2100000000000E+00  0.0000000000000E+00  0.0000000000000E+00
423  4.2200000000000E+00  0.0000000000000E+00  0.0000000000000E+00
424  4.2300000000000E+00  0.0000000000000E+00  0.0000000000000E+00
425  4.2400000000000E+00  0.0000000000000E+00  0.0000000000000E+00
426  4.2500000000000E+00  0.0000000000000E+00  0.0000000000000E+00
427  4.2600000000000E+00  0.0000000000000E+00  0.0000000000000E+00
428  4.2700000000000E+00  0.0000000000000E+00  0.0000000000000E+00
429  4.2800000000000E+00  0.0000000000000E+00  0.0000000000000E+00
430  4.2900000000000E+00  0.0000000000000E+00  0.0000000000000E+00
431  4.3000000000000E+00  0.0000000000000E+00  0.0000000000000E+00
432  4.3100000000000E+00  0.0000000000000E+00  0.0000000000000E+00
433  4.3200000000000E+00  0.0000000000000E+00  0.0000000000000E+00
434  4.3300000000000E+00  0.0000000000000E+00  0.0000000000000E+00
435  4.3400000000000E+00  0.0000000000000E+00  0.0000000000000E+00
436  4.3500000000000E+00  0.0000000000000E+00  0.0000000000000E+00
437  4.3600000000000E+00  0.0000000000000E+00  0.0000000000000E+00
438  4.3700000000000E+00  0.0000000000000E+00  0.0000000000000E+00
439  4.3800000000000E+00  0.0000000000000E+00  0.0000000000000E+00
440  4.3900000000000E+00  0.0000000000000E+00  0.0000000000000E+00
441  4.4000000000000E+00  0.0000000000000E+00  0.0000000000000E+00
442  4.4100000000000E+00  0.0000000000000E+00  0.0000000000000E+00
443  4.4200000000000E+00  0.0000000000000E+00  0.0000000000000E+00