Rh    ONCVPSP-3.2.3.1  r_core=   1.40787   1.40787   1.35838
45.0000     17.0000      170429    zatom,zion,pspd
8      11   2     4   600     0    pspcod,pspxc,lmax,lloc,mmax,r2well
5.99000000  7.00000000  0.00000000    rchrg fchrg qchrg
2     2     2     0     0    nproj
1     1           extension_switch
0                         1.6276313759572E+01  1.5023053371225E+00
1  0.0000000000000E+00  1.7558143827756E-10 -4.0604247741882E-10
2  1.0000000000000E-02  7.8996893812117E-02 -3.6063549488199E-02
3  2.0000000000000E-02  1.5782649547516E-01 -7.1964244059839E-02
4  3.0000000000000E-02  2.3632172054797E-01 -1.0753931637807E-01
5  4.0000000000000E-02  3.1431590269165E-01 -1.4262618100020E-01
6  5.0000000000000E-02  3.9164300939170E-01 -1.7706254205698E-01
7  6.0000000000000E-02  4.6813786555920E-01 -2.1068652071911E-01
8  7.0000000000000E-02  5.4363638742901E-01 -2.4333680856426E-01
9  8.0000000000000E-02  6.1797582899712E-01 -2.7485285255199E-01
10  9.0000000000000E-02  6.9099504302372E-01 -3.0507507681487E-01
11  1.0000000000000E-01  7.6253475837523E-01 -3.3384514588838E-01
12  1.1000000000000E-01  8.3243787519055E-01 -3.6100627333656E-01
13  1.2000000000000E-01  9.0054977903776E-01 -3.8640357899207E-01
14  1.3000000000000E-01  9.6671867488065E-01 -4.0988449722788E-01
15  1.4000000000000E-01  1.0307959413043E+00 -4.3129923782167E-01
16  1.5000000000000E-01  1.0926365050596E+00 -4.5050130007446E-01
17  1.6000000000000E-01  1.1520992355831E+00 -4.6734803991164E-01
18  1.7000000000000E-01  1.2090473587351E+00 -4.8170128873908E-01
19  1.8000000000000E-01  1.2633488885804E+00 -4.9342802186166E-01
20  1.9000000000000E-01  1.3148770756200E+00 -5.0240107330649E-01
21  2.0000000000000E-01  1.3635108694683E+00 -5.0849989294200E-01
22  2.1000000000000E-01  1.4091353935714E+00 -5.1161134085774E-01
23  2.2000000000000E-01  1.4516424291753E+00 -5.1163051308021E-01
24  2.3000000000000E-01  1.4909309053876E+00 -5.0846159185903E-01
25  2.4000000000000E-01  1.5269073918419E+00 -5.0201871297603E-01
26  2.5000000000000E-01  1.5594865901592E+00 -4.9222684181846E-01
27  2.6000000000000E-01  1.5885918201328E+00 -4.7902264932550E-01
28  2.7000000000000E-01  1.6141554963232E+00 -4.6235537837546E-01
29  2.8000000000000E-01  1.6361195905595E+00 -4.4218769073557E-01
30  2.9000000000000E-01  1.6544360756943E+00 -4.1849648435695E-01
31  3.0000000000000E-01  1.6690673458606E+00 -3.9127367056832E-01
32  3.1000000000000E-01  1.6799866084295E+00 -3.6052690061027E-01
33  3.2000000000000E-01  1.6871782428711E+00 -3.2628023096012E-01
34  3.3000000000000E-01  1.6906381217793E+00 -2.8857471702928E-01
35  3.4000000000000E-01  1.6903738894288E+00 -2.4746892507180E-01
36  3.5000000000000E-01  1.6864051934037E+00 -2.0303935252375E-01
37  3.6000000000000E-01  1.6787638650503E+00 -1.5538074749849E-01
38  3.7000000000000E-01  1.6674940447856E+00 -1.0460631878904E-01
39  3.8000000000000E-01  1.6526522486108E+00 -5.0847828471609E-02
40  3.9000000000000E-01  1.6343073725569E+00  5.7444399404272E-03
41  4.0000000000000E-01  1.6125406322053E+00  6.5001843882969E-02
42  4.1000000000000E-01  1.5874454348898E+00  1.2673767970161E-01
43  4.2000000000000E-01  1.5591271826889E+00  1.9074762007403E-01
44  4.3000000000000E-01  1.5277030048506E+00  2.5681029355928E-01
45  4.4000000000000E-01  1.4933014188627E+00  3.2468800764824E-01
46  4.5000000000000E-01  1.4560619199690E+00  3.9412761534526E-01
47  4.6000000000000E-01  1.4161344995473E+00  4.6486152392434E-01
48  4.7000000000000E-01  1.3736790933852E+00  5.3660884308923E-01
49  4.8000000000000E-01  1.3288649615288E+00  6.0907666833832E-01
50  4.9000000000000E-01  1.2818700020069E+00  6.8196149390892E-01
51  5.0000000000000E-01  1.2328800013688E+00  7.5495074826364E-01
52  5.1000000000000E-01  1.1820878255879E+00  8.2772444370226E-01
53  5.2000000000000E-01  1.1296925554864E+00  8.9995693034743E-01
54  5.3000000000000E-01  1.0758985714115E+00  9.7131874347983E-01
55  5.4000000000000E-01  1.0209145924408E+00  1.0414785320009E+00
56  5.5000000000000E-01  9.6495267590387E-01  1.1101050546914E+00
57  5.6000000000000E-01  9.0822718347556E-01  1.1768692299294E+00
58  5.7000000000000E-01  8.5095372051662E-01  1.2414462236409E+00
59  5.8000000000000E-01  7.9334805570568E-01  1.3035175594907E+00
60  5.9000000000000E-01  7.3562502831731E-01  1.3627732346963E+00
61  6.0000000000000E-01  6.7799745075045E-01  1.4189138243684E+00
62  6.1000000000000E-01  6.2067501409695E-01  1.4716525569523E+00
63  6.2000000000000E-01  5.6386320465674E-01  1.5207173431851E+00
64  6.3000000000000E-01  5.0776223935353E-01  1.5658527409808E+00
65  6.4000000000000E-01  4.5256602798110E-01  1.6068218388278E+00
66  6.5000000000000E-01  3.9846117011254E-01  1.6434080406235E+00
67  6.6000000000000E-01  3.4562599433528E-01  1.6754167353849E+00
68  6.7000000000000E-01  2.9422964723320E-01  1.7026768359510E+00
69  6.8000000000000E-01  2.4443123922337E-01  1.7250421716417E+00
70  6.9000000000000E-01  1.9637905397291E-01  1.7423927208431E+00
71  7.0000000000000E-01  1.5020982767185E-01  1.7546356706477E+00
72  7.1000000000000E-01  1.0604810392910E-01  1.7617062919757E+00
73  7.2000000000000E-01  6.4005669483978E-02  1.7635686200471E+00
74  7.3000000000000E-01  2.4181075303883E-02  1.7602159316234E+00
75  7.4000000000000E-01 -1.3340753036005E-02  1.7516710121068E+00
76  7.5000000000000E-01 -4.8488812512498E-02  1.7379862073414E+00
77  7.6000000000000E-01 -8.1206224926348E-02  1.7192432567943E+00
78  7.7000000000000E-01 -1.1145034264359E-01  1.6955529066888E+00
79  7.8000000000000E-01 -1.3919275696861E-01  1.6670543036041E+00
80  7.9000000000000E-01 -1.6441920913043E-01  1.6339141710083E+00
81  8.0000000000000E-01 -1.8712940469151E-01  1.5963257731623E+00
82  8.1000000000000E-01 -2.0733673301403E-01  1.5545076727772E+00
83  8.2000000000000E-01 -2.2506789423581E-01  1.5087022907246E+00
84  8.3000000000000E-01 -2.4036243700784E-01  1.4591742779575E+00
85  8.4000000000000E-01 -2.5327221102017E-01  1.4062087115844E+00
86  8.5000000000000E-01 -2.6386073908455E-01  1.3501091287331E+00
87  8.6000000000000E-01 -2.7220251424355E-01  1.2911954134208E+00
88  8.7000000000000E-01 -2.7838222802916E-01  1.2298015531002E+00
89  8.8000000000000E-01 -2.8249393659263E-01  1.1662732828592E+00
90  8.9000000000000E-01 -2.8464017196489E-01  1.1009656363999E+00
91  9.0000000000000E-01 -2.8493100617785E-01  1.0342404238966E+00
92  9.1000000000000E-01 -2.8348307637521E-01  9.6646365762198E-01
93  9.2000000000000E-01 -2.8041857936397E-01  8.9800294682293E-01
94  9.3000000000000E-01 -2.7586424429940E-01  8.2922488371681E-01
95  9.4000000000000E-01 -2.6995029235442E-01  7.6049244265702E-01
96  9.5000000000000E-01 -2.6280939229764E-01  6.9216241447883E-01
97  9.6000000000000E-01 -2.5457562089060E-01  6.2458289778556E-01
98  9.7000000000000E-01 -2.4538343690993E-01  5.5809086845019E-01
99  9.8000000000000E-01 -2.3536667741913E-01  4.9300984794549E-01
100  9.9000000000000E-01 -2.2465758463420E-01  4.2964769019468E-01
101  1.0000000000000E+00 -2.1338587137288E-01  3.6829450554265E-01
102  1.0100000000000E+00 -2.0167783264037E-01  3.0922073915145E-01
103  1.0200000000000E+00 -1.8965551039023E-01  2.5267541964179E-01
104  1.0300000000000E+00 -1.7743591791688E-01  1.9888459215569E-01
105  1.0400000000000E+00 -1.6513032966148E-01  1.4804994814530E-01
106  1.0500000000000E+00 -1.5284364156471E-01  1.0034766241123E-01
107  1.0600000000000E+00 -1.4067380625353E-01  5.5927445620416E-02
108  1.0700000000000E+00 -1.2871134659846E-01  1.4911818519456E-02
109  1.0800000000000E+00 -1.1703895031724E-01 -2.2604388233453E-02
110  1.0900000000000E+00 -1.0573114736916E-01 -5.6554307153155E-02
111  1.1000000000000E+00 -9.4854071141769E-02 -8.6899080415502E-02
112  1.1100000000000E+00 -8.4465303323535E-02 -1.1362768312361E-01
113  1.1200000000000E+00 -7.4613801597939E-02 -1.3675652868623E-01
114  1.1300000000000E+00 -6.5339908278627E-02 -1.5632886425493E-01
115  1.1400000000000E+00 -5.6675437269885E-02 -1.7241396604723E-01
116  1.1500000000000E+00 -4.8643835724915E-02 -1.8510614695333E-01
117  1.1600000000000E+00 -4.1260416020194E-02 -1.9452359071952E-01
118  1.1700000000000E+00 -3.4532652813055E-02 -2.0080702912136E-01
119  1.1800000000000E+00 -2.8460539415412E-02 -2.0411827986970E-01
120  1.1900000000000E+00 -2.3036996770957E-02 -2.0463866531057E-01
121  1.2000000000000E+00 -1.8248327869660E-02 -2.0256733305725E-01
122  1.2100000000000E+00 -1.4074709893228E-02 -1.9811950097031E-01
123  1.2200000000000E+00 -1.0490715936437E-02 -1.9152464996403E-01
124  1.2300000000000E+00 -7.4658576544487E-03 -1.8302468921019E-01
125  1.2400000000000E+00 -4.9651400344453E-03 -1.7287211855571E-01
126  1.2500000000000E+00 -2.9496192626425E-03 -1.6132821350953E-01
127  1.2600000000000E+00 -1.3769544256961E-03 -1.4866125844923E-01
128  1.2700000000000E+00 -2.0194105885449E-04 -1.3514486481843E-01
129  1.2800000000000E+00  6.2296339413476E-04 -1.2105632212144E-01
130  1.2900000000000E+00  1.1472040300453E-03 -1.0667529770153E-01
131  1.3000000000000E+00  1.4214972444474E-03 -9.2281736456398E-02
132  1.3100000000000E+00  1.4980216972698E-03 -7.8157009107077E-02
133  1.3200000000000E+00  1.4290781645265E-03 -6.4578892631221E-02
134  1.3300000000000E+00  1.2643807307664E-03 -5.1810996679329E-02
135  1.3400000000000E+00  1.0481867370912E-03 -4.0091924225310E-02
136  1.3500000000000E+00  8.1723240216059E-04 -2.9627704935232E-02
137  1.3600000000000E+00  6.0075563569697E-04 -2.0594030508909E-02
138  1.3700000000000E+00  4.1968874857137E-04 -1.3130875491630E-02
139  1.3800000000000E+00  2.8326542760571E-04 -7.3002496668907E-03
140  1.3900000000000E+00  2.0225184032487E-04 -3.2702594940397E-03
141  1.4000000000000E+00  1.8147179233273E-04 -1.1650813665785E-03
142  1.4100000000000E+00  1.4110273436661E-04 -3.4234266978027E-04
143  1.4200000000000E+00  4.1192989777972E-05 -4.8921128200942E-05
144  1.4300000000000E+00 -1.5254007081022E-05  1.1439191015900E-05
145  1.4400000000000E+00 -4.3553144423533E-06  1.9233339650366E-06
146  1.4500000000000E+00  3.6730839121118E-06 -4.0616075546485E-06
147  1.4600000000000E+00 -7.9732405690873E-08  2.3260788793894E-07
148  1.4700000000000E+00 -4.0513629554941E-07  1.1819271878052E-06
149  1.4800000000000E+00  0.0000000000000E+00  0.0000000000000E+00
150  1.4900000000000E+00  0.0000000000000E+00  0.0000000000000E+00
151  1.5000000000000E+00  0.0000000000000E+00  0.0000000000000E+00
152  1.5100000000000E+00  0.0000000000000E+00  0.0000000000000E+00
153  1.5200000000000E+00  0.0000000000000E+00  0.0000000000000E+00
154  1.5300000000000E+00  0.0000000000000E+00  0.0000000000000E+00
155  1.5400000000000E+00  0.0000000000000E+00  0.0000000000000E+00
156  1.5500000000000E+00  0.0000000000000E+00  0.0000000000000E+00
157  1.5600000000000E+00  0.0000000000000E+00  0.0000000000000E+00
158  1.5700000000000E+00  0.0000000000000E+00  0.0000000000000E+00
159  1.5800000000000E+00  0.0000000000000E+00  0.0000000000000E+00
160  1.5900000000000E+00  0.0000000000000E+00  0.0000000000000E+00
161  1.6000000000000E+00  0.0000000000000E+00  0.0000000000000E+00
162  1.6100000000000E+00  0.0000000000000E+00  0.0000000000000E+00
163  1.6200000000000E+00  0.0000000000000E+00  0.0000000000000E+00
164  1.6300000000000E+00  0.0000000000000E+00  0.0000000000000E+00
165  1.6400000000000E+00  0.0000000000000E+00  0.0000000000000E+00
166  1.6500000000000E+00  0.0000000000000E+00  0.0000000000000E+00
167  1.6600000000000E+00  0.0000000000000E+00  0.0000000000000E+00
168  1.6700000000000E+00  0.0000000000000E+00  0.0000000000000E+00
169  1.6800000000000E+00  0.0000000000000E+00  0.0000000000000E+00
170  1.6900000000000E+00  0.0000000000000E+00  0.0000000000000E+00
171  1.7000000000000E+00  0.0000000000000E+00  0.0000000000000E+00
172  1.7100000000000E+00  0.0000000000000E+00  0.0000000000000E+00
173  1.7200000000000E+00  0.0000000000000E+00  0.0000000000000E+00
174  1.7300000000000E+00  0.0000000000000E+00  0.0000000000000E+00
175  1.7400000000000E+00  0.0000000000000E+00  0.0000000000000E+00
176  1.7500000000000E+00  0.0000000000000E+00  0.0000000000000E+00
177  1.7600000000000E+00  0.0000000000000E+00  0.0000000000000E+00
178  1.7700000000000E+00  0.0000000000000E+00  0.0000000000000E+00
179  1.7800000000000E+00  0.0000000000000E+00  0.0000000000000E+00
180  1.7900000000000E+00  0.0000000000000E+00  0.0000000000000E+00
181  1.8000000000000E+00  0.0000000000000E+00  0.0000000000000E+00
182  1.8100000000000E+00  0.0000000000000E+00  0.0000000000000E+00
183  1.8200000000000E+00  0.0000000000000E+00  0.0000000000000E+00
184  1.8300000000000E+00  0.0000000000000E+00  0.0000000000000E+00
185  1.8400000000000E+00  0.0000000000000E+00  0.0000000000000E+00
186  1.8500000000000E+00  0.0000000000000E+00  0.0000000000000E+00
187  1.8600000000000E+00  0.0000000000000E+00  0.0000000000000E+00
188  1.8700000000000E+00  0.0000000000000E+00  0.0000000000000E+00
189  1.8800000000000E+00  0.0000000000000E+00  0.0000000000000E+00
190  1.8900000000000E+00  0.0000000000000E+00  0.0000000000000E+00
191  1.9000000000000E+00  0.0000000000000E+00  0.0000000000000E+00
192  1.9100000000000E+00  0.0000000000000E+00  0.0000000000000E+00
193  1.9200000000000E+00  0.0000000000000E+00  0.0000000000000E+00
194  1.9300000000000E+00  0.0000000000000E+00  0.0000000000000E+00
195  1.9400000000000E+00  0.0000000000000E+00  0.0000000000000E+00
196  1.9500000000000E+00  0.0000000000000E+00  0.0000000000000E+00
197  1.9600000000000E+00  0.0000000000000E+00  0.0000000000000E+00
198  1.9700000000000E+00  0.0000000000000E+00  0.0000000000000E+00
199  1.9800000000000E+00  0.0000000000000E+00  0.0000000000000E+00
200  1.9900000000000E+00  0.0000000000000E+00  0.0000000000000E+00
201  2.0000000000000E+00  0.0000000000000E+00  0.0000000000000E+00
202  2.0100000000000E+00  0.0000000000000E+00  0.0000000000000E+00
203  2.0200000000000E+00  0.0000000000000E+00  0.0000000000000E+00
204  2.0300000000000E+00  0.0000000000000E+00  0.0000000000000E+00
205  2.0400000000000E+00  0.0000000000000E+00  0.0000000000000E+00
206  2.0500000000000E+00  0.0000000000000E+00  0.0000000000000E+00
207  2.0600000000000E+00  0.0000000000000E+00  0.0000000000000E+00
208  2.0700000000000E+00  0.0000000000000E+00  0.0000000000000E+00
209  2.0800000000000E+00  0.0000000000000E+00  0.0000000000000E+00
210  2.0900000000000E+00  0.0000000000000E+00  0.0000000000000E+00
211  2.1000000000000E+00  0.0000000000000E+00  0.0000000000000E+00
212  2.1100000000000E+00  0.0000000000000E+00  0.0000000000000E+00
213  2.1200000000000E+00  0.0000000000000E+00  0.0000000000000E+00
214  2.1300000000000E+00  0.0000000000000E+00  0.0000000000000E+00
215  2.1400000000000E+00  0.0000000000000E+00  0.0000000000000E+00
216  2.1500000000000E+00  0.0000000000000E+00  0.0000000000000E+00
217  2.1600000000000E+00  0.0000000000000E+00  0.0000000000000E+00
218  2.1700000000000E+00  0.0000000000000E+00  0.0000000000000E+00
219  2.1800000000000E+00  0.0000000000000E+00  0.0000000000000E+00
220  2.1900000000000E+00  0.0000000000000E+00  0.0000000000000E+00
221  2.2000000000000E+00  0.0000000000000E+00  0.0000000000000E+00
222  2.2100000000000E+00  0.0000000000000E+00  0.0000000000000E+00
223  2.2200000000000E+00  0.0000000000000E+00  0.0000000000000E+00
224  2.2300000000000E+00  0.0000000000000E+00  0.0000000000000E+00
225  2.2400000000000E+00  0.0000000000000E+00  0.0000000000000E+00
226  2.2500000000000E+00  0.0000000000000E+00  0.0000000000000E+00
227  2.2600000000000E+00  0.0000000000000E+00  0.0000000000000E+00
228  2.2700000000000E+00  0.0000000000000E+00  0.0000000000000E+00
229  2.2800000000000E+00  0.0000000000000E+00  0.0000000000000E+00
230  2.2900000000000E+00  0.0000000000000E+00  0.0000000000000E+00
231  2.3000000000000E+00  0.0000000000000E+00  0.0000000000000E+00
232  2.3100000000000E+00  0.0000000000000E+00  0.0000000000000E+00
233  2.3200000000000E+00  0.0000000000000E+00  0.0000000000000E+00
234  2.3300000000000E+00  0.0000000000000E+00  0.0000000000000E+00
235  2.3400000000000E+00  0.0000000000000E+00  0.0000000000000E+00
236  2.3500000000000E+00  0.0000000000000E+00  0.0000000000000E+00
237  2.3600000000000E+00  0.0000000000000E+00  0.0000000000000E+00
238  2.3700000000000E+00  0.0000000000000E+00  0.0000000000000E+00
239  2.3800000000000E+00  0.0000000000000E+00  0.0000000000000E+00
240  2.3900000000000E+00  0.0000000000000E+00  0.0000000000000E+00
241  2.4000000000000E+00  0.0000000000000E+00  0.0000000000000E+00
242  2.4100000000000E+00  0.0000000000000E+00  0.0000000000000E+00
243  2.4200000000000E+00  0.0000000000000E+00  0.0000000000000E+00
244  2.4300000000000E+00  0.0000000000000E+00  0.0000000000000E+00
245  2.4400000000000E+00  0.0000000000000E+00  0.0000000000000E+00
246  2.4500000000000E+00  0.0000000000000E+00  0.0000000000000E+00
247  2.4600000000000E+00  0.0000000000000E+00  0.0000000000000E+00
248  2.4700000000000E+00  0.0000000000000E+00  0.0000000000000E+00
249  2.4800000000000E+00  0.0000000000000E+00  0.0000000000000E+00
250  2.4900000000000E+00  0.0000000000000E+00  0.0000000000000E+00
251  2.5000000000000E+00  0.0000000000000E+00  0.0000000000000E+00
252  2.5100000000000E+00  0.0000000000000E+00  0.0000000000000E+00
253  2.5200000000000E+00  0.0000000000000E+00  0.0000000000000E+00
254  2.5300000000000E+00  0.0000000000000E+00  0.0000000000000E+00
255  2.5400000000000E+00  0.0000000000000E+00  0.0000000000000E+00
256  2.5500000000000E+00  0.0000000000000E+00  0.0000000000000E+00
257  2.5600000000000E+00  0.0000000000000E+00  0.0000000000000E+00
258  2.5700000000000E+00  0.0000000000000E+00  0.0000000000000E+00
259  2.5800000000000E+00  0.0000000000000E+00  0.0000000000000E+00
260  2.5900000000000E+00  0.0000000000000E+00  0.0000000000000E+00
261  2.6000000000000E+00  0.0000000000000E+00  0.0000000000000E+00
262  2.6100000000000E+00  0.0000000000000E+00  0.0000000000000E+00
263  2.6200000000000E+00  0.0000000000000E+00  0.0000000000000E+00
264  2.6300000000000E+00  0.0000000000000E+00  0.0000000000000E+00
265  2.6400000000000E+00  0.0000000000000E+00  0.0000000000000E+00
266  2.6500000000000E+00  0.0000000000000E+00  0.0000000000000E+00
267  2.6600000000000E+00  0.0000000000000E+00  0.0000000000000E+00
268  2.6700000000000E+00  0.0000000000000E+00  0.0000000000000E+00
269  2.6800000000000E+00  0.0000000000000E+00  0.0000000000000E+00
270  2.6900000000000E+00  0.0000000000000E+00  0.0000000000000E+00
271  2.7000000000000E+00  0.0000000000000E+00  0.0000000000000E+00
272  2.7100000000000E+00  0.0000000000000E+00  0.0000000000000E+00
273  2.7200000000000E+00  0.0000000000000E+00  0.0000000000000E+00
274  2.7300000000000E+00  0.0000000000000E+00  0.0000000000000E+00
275  2.7400000000000E+00  0.0000000000000E+00  0.0000000000000E+00
276  2.7500000000000E+00  0.0000000000000E+00  0.0000000000000E+00
277  2.7600000000000E+00  0.0000000000000E+00  0.0000000000000E+00
278  2.7700000000000E+00  0.0000000000000E+00  0.0000000000000E+00
279  2.7800000000000E+00  0.0000000000000E+00  0.0000000000000E+00
280  2.7900000000000E+00  0.0000000000000E+00  0.0000000000000E+00
281  2.8000000000000E+00  0.0000000000000E+00  0.0000000000000E+00
282  2.8100000000000E+00  0.0000000000000E+00  0.0000000000000E+00
283  2.8200000000000E+00  0.0000000000000E+00  0.0000000000000E+00
284  2.8300000000000E+00  0.0000000000000E+00  0.0000000000000E+00
285  2.8400000000000E+00  0.0000000000000E+00  0.0000000000000E+00
286  2.8500000000000E+00  0.0000000000000E+00  0.0000000000000E+00
287  2.8600000000000E+00  0.0000000000000E+00  0.0000000000000E+00
288  2.8700000000000E+00  0.0000000000000E+00  0.0000000000000E+00
289  2.8800000000000E+00  0.0000000000000E+00  0.0000000000000E+00
290  2.8900000000000E+00  0.0000000000000E+00  0.0000000000000E+00
291  2.9000000000000E+00  0.0000000000000E+00  0.0000000000000E+00
292  2.9100000000000E+00  0.0000000000000E+00  0.0000000000000E+00
293  2.9200000000000E+00  0.0000000000000E+00  0.0000000000000E+00
294  2.9300000000000E+00  0.0000000000000E+00  0.0000000000000E+00
295  2.9400000000000E+00  0.0000000000000E+00  0.0000000000000E+00
296  2.9500000000000E+00  0.0000000000000E+00  0.0000000000000E+00
297  2.9600000000000E+00  0.0000000000000E+00  0.0000000000000E+00
298  2.9700000000000E+00  0.0000000000000E+00  0.0000000000000E+00
299  2.9800000000000E+00  0.0000000000000E+00  0.0000000000000E+00
300  2.9900000000000E+00  0.0000000000000E+00  0.0000000000000E+00
301  3.0000000000000E+00  0.0000000000000E+00  0.0000000000000E+00
302  3.0100000000000E+00  0.0000000000000E+00  0.0000000000000E+00
303  3.0200000000000E+00  0.0000000000000E+00  0.0000000000000E+00
304  3.0300000000000E+00  0.0000000000000E+00  0.0000000000000E+00
305  3.0400000000000E+00  0.0000000000000E+00  0.0000000000000E+00
306  3.0500000000000E+00  0.0000000000000E+00  0.0000000000000E+00
307  3.0600000000000E+00  0.0000000000000E+00  0.0000000000000E+00
308  3.0700000000000E+00  0.0000000000000E+00  0.0000000000000E+00
309  3.0800000000000E+00  0.0000000000000E+00  0.0000000000000E+00
310  3.0900000000000E+00  0.0000000000000E+00  0.0000000000000E+00
311  3.1000000000000E+00  0.0000000000000E+00  0.0000000000000E+00
312  3.1100000000000E+00  0.0000000000000E+00  0.0000000000000E+00
313  3.1200000000000E+00  0.0000000000000E+00  0.0000000000000E+00
314  3.1300000000000E+00  0.0000000000000E+00  0.0000000000000E+00
315  3.1400000000000E+00  0.0000000000000E+00  0.0000000000000E+00
316  3.1500000000000E+00  0.0000000000000E+00  0.0000000000000E+00
317  3.1600000000000E+00  0.0000000000000E+00  0.0000000000000E+00
318  3.1700000000000E+00  0.0000000000000E+00  0.0000000000000E+00
319  3.1800000000000E+00  0.0000000000000E+00  0.0000000000000E+00
320  3.1900000000000E+00  0.0000000000000E+00  0.0000000000000E+00
321  3.2000000000000E+00  0.0000000000000E+00  0.0000000000000E+00
322  3.2100000000000E+00  0.0000000000000E+00  0.0000000000000E+00
323  3.2200000000000E+00  0.0000000000000E+00  0.0000000000000E+00
324  3.2300000000000E+00  0.0000000000000E+00  0.0000000000000E+00
325  3.2400000000000E+00  0.0000000000000E+00  0.0000000000000E+00
326  3.2500000000000E+00  0.0000000000000E+00  0.0000000000000E+00
327  3.2600000000000E+00  0.0000000000000E+00  0.0000000000000E+00
328  3.2700000000000E+00  0.0000000000000E+00  0.0000000000000E+00
329  3.2800000000000E+00  0.0000000000000E+00  0.0000000000000E+00
330  3.2900000000000E+00  0.0000000000000E+00  0.0000000000000E+00
331  3.3000000000000E+00  0.0000000000000E+00  0.0000000000000E+00
332  3.3100000000000E+00  0.0000000000000E+00  0.0000000000000E+00
333  3.3200000000000E+00  0.0000000000000E+00  0.0000000000000E+00
334  3.3300000000000E+00  0.0000000000000E+00  0.0000000000000E+00
335  3.3400000000000E+00  0.0000000000000E+00  0.0000000000000E+00
336  3.3500000000000E+00  0.0000000000000E+00  0.0000000000000E+00
337  3.3600000000000E+00  0.0000000000000E+00  0.0000000000000E+00
338  3.3700000000000E+00  0.0000000000000E+00  0.0000000000000E+00
339  3.3800000000000E+00  0.0000000000000E+00  0.0000000000000E+00
340  3.3900000000000E+00  0.0000000000000E+00  0.0000000000000E+00
341  3.4000000000000E+00  0.0000000000000E+00  0.0000000000000E+00
342  3.4100000000000E+00  0.0000000000000E+00  0.0000000000000E+00
343  3.4200000000000E+00  0.0000000000000E+00  0.0000000000000E+00
344  3.4300000000000E+00  0.0000000000000E+00  0.0000000000000E+00
345  3.4400000000000E+00  0.0000000000000E+00  0.0000000000000E+00
346  3.4500000000000E+00  0.0000000000000E+00  0.0000000000000E+00
347  3.4600000000000E+00  0.0000000000000E+00  0.0000000000000E+00
348  3.4700000000000E+00  0.0000000000000E+00  0.0000000000000E+00
349  3.4800000000000E+00  0.0000000000000E+00  0.0000000000000E+00
350  3.4900000000000E+00  0.0000000000000E+00  0.0000000000000E+00
351  3.5000000000000E+00  0.0000000000000E+00  0.0000000000000E+00
352  3.5100000000000E+00  0.0000000000000E+00  0.0000000000000E+00
353  3.5200000000000E+00  0.0000000000000E+00  0.0000000000000E+00
354  3.5300000000000E+00  0.0000000000000E+00  0.0000000000000E+00
355  3.5400000000000E+00  0.0000000000000E+00  0.0000000000000E+00
356  3.5500000000000E+00  0.0000000000000E+00  0.0000000000000E+00
357  3.5600000000000E+00  0.0000000000000E+00  0.0000000000000E+00
358  3.5700000000000E+00  0.0000000000000E+00  0.0000000000000E+00
359  3.5800000000000E+00  0.0000000000000E+00  0.0000000000000E+00
360  3.5900000000000E+00  0.0000000000000E+00  0.0000000000000E+00
361  3.6000000000000E+00  0.0000000000000E+00  0.0000000000000E+00
362  3.6100000000000E+00  0.0000000000000E+00  0.0000000000000E+00
363  3.6200000000000E+00  0.0000000000000E+00  0.0000000000000E+00
364  3.6300000000000E+00  0.0000000000000E+00  0.0000000000000E+00
365  3.6400000000000E+00  0.0000000000000E+00  0.0000000000000E+00
366  3.6500000000000E+00  0.0000000000000E+00  0.0000000000000E+00
367  3.6600000000000E+00  0.0000000000000E+00  0.0000000000000E+00
368  3.6700000000000E+00  0.0000000000000E+00  0.0000000000000E+00
369  3.6800000000000E+00  0.0000000000000E+00  0.0000000000000E+00
370  3.6900000000000E+00  0.0000000000000E+00  0.0000000000000E+00
371  3.7000000000000E+00  0.0000000000000E+00  0.0000000000000E+00
372  3.7100000000000E+00  0.0000000000000E+00  0.0000000000000E+00
373  3.7200000000000E+00  0.0000000000000E+00  0.0000000000000E+00
374  3.7300000000000E+00  0.0000000000000E+00  0.0000000000000E+00
375  3.7400000000000E+00  0.0000000000000E+00  0.0000000000000E+00
376  3.7500000000000E+00  0.0000000000000E+00  0.0000000000000E+00
377  3.7600000000000E+00  0.0000000000000E+00  0.0000000000000E+00
378  3.7700000000000E+00  0.0000000000000E+00  0.0000000000000E+00
379  3.7800000000000E+00  0.0000000000000E+00  0.0000000000000E+00
380  3.7900000000000E+00  0.0000000000000E+00  0.0000000000000E+00
381  3.8000000000000E+00  0.0000000000000E+00  0.0000000000000E+00
382  3.8100000000000E+00  0.0000000000000E+00  0.0000000000000E+00
383  3.8200000000000E+00  0.0000000000000E+00  0.0000000000000E+00
384  3.8300000000000E+00  0.0000000000000E+00  0.0000000000000E+00
385  3.8400000000000E+00  0.0000000000000E+00  0.0000000000000E+00
386  3.8500000000000E+00  0.0000000000000E+00  0.0000000000000E+00
387  3.8600000000000E+00  0.0000000000000E+00  0.0000000000000E+00
388  3.8700000000000E+00  0.0000000000000E+00  0.0000000000000E+00
389  3.8800000000000E+00  0.0000000000000E+00  0.0000000000000E+00
390  3.8900000000000E+00  0.0000000000000E+00  0.0000000000000E+00
391  3.9000000000000E+00  0.0000000000000E+00  0.0000000000000E+00
392  3.9100000000000E+00  0.0000000000000E+00  0.0000000000000E+00
393  3.9200000000000E+00  0.0000000000000E+00  0.0000000000000E+00
394  3.9300000000000E+00  0.0000000000000E+00  0.0000000000000E+00
395  3.9400000000000E+00  0.0000000000000E+00  0.0000000000000E+00
396  3.9500000000000E+00  0.0000000000000E+00  0.0000000000000E+00
397  3.9600000000000E+00  0.0000000000000E+00  0.0000000000000E+00
398  3.9700000000000E+00  0.0000000000000E+00  0.0000000000000E+00
399  3.9800000000000E+00  0.0000000000000E+00  0.0000000000000E+00
400  3.9900000000000E+00  0.0000000000000E+00  0.0000000000000E+00
401  4.0000000000000E+00  0.0000000000000E+00  0.0000000000000E+00
402  4.0100000000000E+00  0.0000000000000E+00  0.0000000000000E+00
403  4.0200000000000E+00  0.0000000000000E+00  0.0000000000000E+00
404  4.0300000000000E+00  0.0000000000000E+00  0.0000000000000E+00
405  4.0400000000000E+00  0.0000000000000E+00  0.0000000000000E+00
406  4.0500000000000E+00  0.0000000000000E+00  0.0000000000000E+00
407  4.0600000000000E+00  0.0000000000000E+00  0.0000000000000E+00
408  4.0700000000000E+00  0.0000000000000E+00  0.0000000000000E+00
409  4.0800000000000E+00  0.0000000000000E+00  0.0000000000000E+00
410  4.0900000000000E+00  0.0000000000000E+00  0.0000000000000E+00
411  4.1000000000000E+00  0.0000000000000E+00  0.0000000000000E+00
412  4.1100000000000E+00  0.0000000000000E+00  0.0000000000000E+00
413  4.1200000000000E+00  0.0000000000000E+00  0.0000000000000E+00
414  4.1300000000000E+00  0.0000000000000E+00  0.0000000000000E+00
415  4.1400000000000E+00  0.0000000000000E+00  0.0000000000000E+00
416  4.1500000000000E+00  0.0000000000000E+00  0.0000000000000E+00
417  4.1600000000000E+00  0.0000000000000E+00  0.0000000000000E+00
418  4.1700000000000E+00  0.0000000000000E+00  0.0000000000000E+00
419  4.1800000000000E+00  0.0000000000000E+00  0.0000000000000E+00
420  4.1900000000000E+00  0.0000000000000E+00  0.0000000000000E+00
421  4.2000000000000E+00  0.0000000000000E+00  0.0000000000000E+00
422  4.2100000000000E+00  0.0000000000000E+00  0.0000000000000E+00
423  4.2200000000000E+00  0.0000000000000E+00  0.0000000000000E+00
424  4.2300000000000E+00  0.0000000000000E+00  0.0000000000000E+00
425  4.2400000000000E+00  0.0000000000000E+00  0.0000000000000E+00
426  4.2500000000000E+00  0.0000000000000E+00  0.0000000000000E+00
427  4.2600000000000E+00  0.0000000000000E+00  0.0000000000000E+00
428  4.2700000000000E+00  0.0000000000000E+00  0.0000000000000E+00
429  4.2800000000000E+00  0.0000000000000E+00  0.0000000000000E+00
430  4.2900000000000E+00  0.0000000000000E+00  0.0000000000000E+00
431  4.3000000000000E+00  0.0000000000000E+00  0.0000000000000E+00
432  4.3100000000000E+00  0.0000000000000E+00  0.0000000000000E+00
433  4.3200000000000E+00  0.0000000000000E+00  0.0000000000000E+00
434  4.3300000000000E+00  0.0000000000000E+00  0.0000000000000E+00
435  4.3400000000000E+00  0.0000000000000E+00  0.0000000000000E+00
436  4.3500000000000E+00  0.0000000000000E+00  0.0000000000000E+00
437  4.3600000000000E+00  0.0000000000000E+00  0.0000000000000E+00
438  4.3700000000000E+00  0.0000000000000E+00  0.0000000000000E+00
439  4.3800000000000E+00  0.0000000000000E+00  0.0000000000000E+00
440  4.3900000000000E+00  0.0000000000000E+00  0.0000000000000E+00
441  4.4000000000000E+00  0.0000000000000E+00  0.0000000000000E+00
442  4.4100000000000E+00  0.0000000000000E+00  0.0000000000000E+00
443  4.4200000000000E+00  0.0000000000000E+00  0.0000000000000E+00