Pd    ONCVPSP-3.2.3.1  r_core=   1.41052   1.46191   1.55175
46.0000     18.0000      170510    zatom,zion,pspd
8      11   2     4   600     0    pspcod,pspxc,lmax,lloc,mmax,r2well
5.99000000  7.00000000  0.00000000    rchrg fchrg qchrg
2     2     2     0     0    nproj
1     1           extension_switch
0                         7.8458495723393E+00 -2.2821597774899E+00
1  0.0000000000000E+00 -1.2148643202536E-10 -9.0625795756694E-10
2  1.0000000000000E-02  6.3662790388387E-02 -5.8022747624129E-02
3  2.0000000000000E-02  1.2719896151997E-01 -1.1590283647383E-01
4  3.0000000000000E-02  1.9048236545379E-01 -1.7349681112799E-01
5  4.0000000000000E-02  2.5338779354173E-01 -2.3065964150384E-01
6  5.0000000000000E-02  3.1579143775871E-01 -2.8724398187282E-01
7  6.0000000000000E-02  3.7757134214035E-01 -3.4309948484375E-01
8  7.0000000000000E-02  4.3860784117429E-01 -3.9807218756198E-01
9  8.0000000000000E-02  4.9878398211283E-01 -4.5200398646647E-01
10  9.0000000000000E-02  5.5798592832457E-01 -5.0473221583223E-01
11  1.0000000000000E-01  6.1610334097893E-01 -5.5608934401234E-01
12  1.1000000000000E-01  6.7302973655952E-01 -6.0590279979831E-01
13  1.2000000000000E-01  7.2866281792710E-01 -6.5399493965271E-01
14  1.3000000000000E-01  7.8290477689923E-01 -7.0018316475341E-01
15  1.4000000000000E-01  8.3566256657848E-01 -7.4428019484203E-01
16  1.5000000000000E-01  8.8684814194255E-01 -7.8609450381163E-01
17  1.6000000000000E-01  9.3637866750446E-01 -8.2543091982201E-01
18  1.7000000000000E-01  9.8417669115670E-01 -8.6209139051795E-01
19  1.8000000000000E-01  1.0301702836267E+00 -8.9587591167020E-01
20  1.9000000000000E-01  1.0742931432893E+00 -9.2658361528616E-01
21  2.0000000000000E-01  1.1164846664024E+00 -9.5401401097048E-01
22  2.1000000000000E-01  1.1566899831495E+00 -9.7796837208259E-01
23  2.2000000000000E-01  1.1948599601886E+00 -9.9825125606036E-01
24  2.3000000000000E-01  1.2309511707116E+00 -1.0146721461854E+00
25  2.4000000000000E-01  1.2649258333149E+00 -1.0270472000760E+00
26  2.5000000000000E-01  1.2967517212642E+00 -1.0352010883361E+00
27  2.6000000000000E-01  1.3264020439994E+00 -1.0389689050796E+00
28  2.7000000000000E-01  1.3538553029752E+00 -1.0381981305184E+00
29  2.8000000000000E-01  1.3790951241528E+00 -1.0327506244603E+00
30  2.9000000000000E-01  1.4021100696601E+00 -1.0225046284311E+00
31  3.0000000000000E-01  1.4228934313100E+00 -1.0073567532365E+00
32  3.1000000000000E-01  1.4414430088109E+00 -9.8722392811093E-01
33  3.2000000000000E-01  1.4577608756173E+00 -9.6204528719542E-01
34  3.3000000000000E-01  1.4718531354523E+00 -9.3178396893414E-01
35  3.4000000000000E-01  1.4837296725826E+00 -8.9642880410105E-01
36  3.5000000000000E-01  1.4934038989452E+00 -8.5599586855839E-01
37  3.6000000000000E-01  1.5008925012053E+00 -8.1052987751549E-01
38  3.7000000000000E-01  1.5062151907774E+00 -7.6010539899216E-01
39  3.8000000000000E-01  1.5093944597535E+00 -7.0482786539723E-01
40  3.9000000000000E-01  1.5104553455671E+00 -6.4483436359684E-01
41  4.0000000000000E-01  1.5094252070713E+00 -5.8029418556315E-01
42  4.1000000000000E-01  1.5063335145278E+00 -5.1140912364684E-01
43  4.2000000000000E-01  1.5012116557938E+00 -4.3841349669097E-01
44  4.3000000000000E-01  1.4940927607594E+00 -3.6157389558236E-01
45  4.4000000000000E-01  1.4850115458205E+00 -2.8118863939724E-01
46  4.5000000000000E-01  1.4740041798943E+00 -1.9758693601949E-01
47  4.6000000000000E-01  1.4611081731744E+00 -1.1112774396543E-01
48  4.7000000000000E-01  1.4463622895059E+00 -2.2198335113097E-02
49  4.8000000000000E-01  1.4298064829261E+00  6.8787438922893E-02
50  4.9000000000000E-01  1.4114818585716E+00  1.6139117093663E-01
51  5.0000000000000E-01  1.3914306578058E+00  2.5515220385284E-01
52  5.1000000000000E-01  1.3696962670667E+00  3.4959020598387E-01
53  5.2000000000000E-01  1.3463232495883E+00  4.4420800072989E-01
54  5.3000000000000E-01  1.3213573988009E+00  5.3849463266100E-01
55  5.4000000000000E-01  1.2948458118851E+00  6.3192864905784E-01
56  5.5000000000000E-01  1.2668369816314E+00  7.2398157327217E-01
57  5.6000000000000E-01  1.2373809044536E+00  8.1412154373043E-01
58  5.7000000000000E-01  1.2065292021235E+00  9.0181709006197E-01
59  5.8000000000000E-01  1.1743352545358E+00  9.8654101573788E-01
60  5.9000000000000E-01  1.1408543405824E+00  1.0677743547574E+00
61  6.0000000000000E-01  1.1061437840191E+00  1.1450103683685E+00
62  6.1000000000000E-01  1.0702631010400E+00  1.2177585465529E+00
63  6.2000000000000E-01  1.0332741461518E+00  1.2855485780868E+00
64  6.3000000000000E-01  9.9524125284702E-01  1.3479342524048E+00
65  6.4000000000000E-01  9.5623136553199E-01  1.4044972562717E+00
66  6.5000000000000E-01  9.1631415915373E-01  1.4548508284053E+00
67  6.6000000000000E-01  8.7556214301202E-01  1.4986432357092E+00
68  6.7000000000000E-01  8.3405074531994E-01  1.5355610356616E+00
69  6.8000000000000E-01  7.9185837520112E-01  1.5653320906619E+00
70  6.9000000000000E-01  7.4906645897892E-01  1.5877283017709E+00
71  7.0000000000000E-01  7.0575944782188E-01  1.6025680312650E+00
72  7.1000000000000E-01  6.6202479405944E-01  1.6097181857554E+00
73  7.2000000000000E-01  6.1795289377022E-01  1.6090959342794E+00
74  7.3000000000000E-01  5.7363699357147E-01  1.6006700387483E+00
75  7.4000000000000E-01  5.2917305989625E-01  1.5844617773776E+00
76  7.5000000000000E-01  4.8465960943457E-01  1.5605454452359E+00
77  7.6000000000000E-01  4.4019749983134E-01  1.5290484197790E+00
78  7.7000000000000E-01  3.9588968017246E-01  1.4901507831559E+00
79  7.8000000000000E-01  3.5184090124774E-01  1.4440844971459E+00
80  7.9000000000000E-01  3.0815738605165E-01  1.3911321307846E+00
81  8.0000000000000E-01  2.6494646146218E-01  1.3316251449969E+00
82  8.1000000000000E-01  2.2231615252218E-01  1.2659417428518E+00
83  8.2000000000000E-01  1.8037474123055E-01  1.1945042983451E+00
84  8.3000000000000E-01  1.3923029222579E-01  1.1177763808484E+00
85  8.4000000000000E-01  9.8990148208349E-02  1.0362593964937E+00
86  8.5000000000000E-01  5.9760398393784E-02  9.5048887175965E-01
87  8.6000000000000E-01  2.1645323711908E-02  8.6103040832567E-01
88  8.7000000000000E-01 -1.5253177138123E-02  7.6847534184335E-01
89  8.8000000000000E-01 -5.0836176304858E-02  6.7343614058035E-01
90  8.9000000000000E-01 -8.5008315277769E-02  5.7654158289832E-01
91  9.0000000000000E-01 -1.1767840817866E-01  4.7843175518722E-01
92  9.1000000000000E-01 -1.4876004453748E-01  3.7975291416661E-01
93  9.2000000000000E-01 -1.7817218605294E-01  2.8115225934763E-01
94  9.3000000000000E-01 -2.0583975170499E-01  1.8327266290513E-01
95  9.4000000000000E-01 -2.3169418550903E-01  8.6747405213528E-02
96  9.5000000000000E-01 -2.5567400118177E-01 -7.8050351621447E-03
97  9.6000000000000E-01 -2.7772529802958E-01 -9.9786088182461E-02
98  9.7000000000000E-01 -2.9780224246604E-01 -1.8862204732521E-01
99  9.8000000000000E-01 -3.1586750972990E-01 -2.7376882536945E-01
100  9.9000000000000E-01 -3.3189268059182E-01 -3.5471646488088E-01
101  1.0000000000000E+00 -3.4585858811810E-01 -4.3099335920137E-01
102  1.0100000000000E+00 -3.5775560989619E-01 -5.0217014210133E-01
103  1.0200000000000E+00 -3.6758390151485E-01 -5.6786320703429E-01
104  1.0300000000000E+00 -3.7535356755507E-01 -6.2773782031576E-01
105  1.0400000000000E+00 -3.8108476679303E-01 -6.8151079582520E-01
106  1.0500000000000E+00 -3.8480774891146E-01 -7.2895270326859E-01
107  1.0600000000000E+00 -3.8656282055209E-01 -7.6988958607106E-01
108  1.0700000000000E+00 -3.8640023916221E-01 -8.0420416965916E-01
109  1.0800000000000E+00 -3.8438003375860E-01 -8.3183654599460E-01
110  1.0900000000000E+00 -3.8057175232235E-01 -8.5278432473449E-01
111  1.1000000000000E+00 -3.7505413629564E-01 -8.6710224720925E-01
112  1.1100000000000E+00 -3.6791472330173E-01 -8.7490126443165E-01
113  1.1200000000000E+00 -3.5924937991962E-01 -8.7634708585373E-01
114  1.1300000000000E+00 -3.4916176702352E-01 -8.7165821086876E-01
115  1.1400000000000E+00 -3.3776274083606E-01 -8.6110346004335E-01
116  1.1500000000000E+00 -3.2516969360054E-01 -8.4499902899990E-01
117  1.1600000000000E+00 -3.1150583835112E-01 -8.2370509240127E-01
118  1.1700000000000E+00 -2.9689944284869E-01 -7.9762199015957E-01
119  1.1800000000000E+00 -2.8148301832274E-01 -7.6718603254001E-01
120  1.1900000000000E+00 -2.6539246924471E-01 -7.3286496554453E-01
121  1.2000000000000E+00 -2.4876621079447E-01 -6.9515314152404E-01
122  1.2100000000000E+00 -2.3174426098941E-01 -6.5456644246029E-01
123  1.2200000000000E+00 -2.1446731500219E-01 -6.1163700798020E-01
124  1.2300000000000E+00 -1.9707580935581E-01 -5.6690782163843E-01
125  1.2400000000000E+00 -1.7970898389007E-01 -5.2092721079186E-01
126  1.2500000000000E+00 -1.6250394963878E-01 -4.7424331757192E-01
127  1.2600000000000E+00 -1.4559477077572E-01 -4.2739859898974E-01
128  1.2700000000000E+00 -1.2911156875236E-01 -3.8092441413147E-01
129  1.2800000000000E+00 -1.1317965682423E-01 -3.3533575724587E-01
130  1.2900000000000E+00 -9.7918712818828E-02 -2.9112619343652E-01
131  1.3000000000000E+00 -8.3441997864612E-02 -2.4876305275339E-01
132  1.3100000000000E+00 -6.9855628690468E-02 -2.0868293796200E-01
133  1.3200000000000E+00 -5.7257910259946E-02 -1.7128759545534E-01
134  1.3300000000000E+00 -4.5738735568192E-02 -1.3694019919287E-01
135  1.3400000000000E+00 -3.5379058851756E-02 -1.0596209365876E-01
136  1.3500000000000E+00 -2.6250447228105E-02 -7.8630033034217E-02
137  1.3600000000000E+00 -1.8414716451480E-02 -5.5173958576064E-02
138  1.3700000000000E+00 -1.1928211884615E-02 -3.5789293180410E-02
139  1.3800000000000E+00 -6.8063043118794E-03 -2.0526320308187E-02
140  1.3900000000000E+00 -3.1092969321319E-03 -9.5579074203387E-03
141  1.4000000000000E+00 -9.6455694771384E-04 -3.2636809267692E-03
142  1.4100000000000E+00 -1.0133579742920E-04 -7.0483872751748E-04
143  1.4200000000000E+00  5.2935723435724E-05 -2.1965905000436E-05
144  1.4300000000000E+00 -1.2119668761309E-05 -9.8298069492860E-06
145  1.4400000000000E+00 -1.5830423975233E-05 -1.9342265794003E-05
146  1.4500000000000E+00  3.3058229787939E-06  1.1107014376161E-06
147  1.4600000000000E+00  1.2415504714840E-06  7.3764192749646E-07
148  1.4700000000000E+00  2.3023444244049E-07  1.8136492745204E-06
149  1.4800000000000E+00  0.0000000000000E+00  0.0000000000000E+00
150  1.4900000000000E+00  0.0000000000000E+00  0.0000000000000E+00
151  1.5000000000000E+00  0.0000000000000E+00  0.0000000000000E+00
152  1.5100000000000E+00  0.0000000000000E+00  0.0000000000000E+00
153  1.5200000000000E+00  0.0000000000000E+00  0.0000000000000E+00
154  1.5300000000000E+00  0.0000000000000E+00  0.0000000000000E+00
155  1.5400000000000E+00  0.0000000000000E+00  0.0000000000000E+00
156  1.5500000000000E+00  0.0000000000000E+00  0.0000000000000E+00
157  1.5600000000000E+00  0.0000000000000E+00  0.0000000000000E+00
158  1.5700000000000E+00  0.0000000000000E+00  0.0000000000000E+00
159  1.5800000000000E+00  0.0000000000000E+00  0.0000000000000E+00
160  1.5900000000000E+00  0.0000000000000E+00  0.0000000000000E+00
161  1.6000000000000E+00  0.0000000000000E+00  0.0000000000000E+00
162  1.6100000000000E+00  0.0000000000000E+00  0.0000000000000E+00
163  1.6200000000000E+00  0.0000000000000E+00  0.0000000000000E+00
164  1.6300000000000E+00  0.0000000000000E+00  0.0000000000000E+00
165  1.6400000000000E+00  0.0000000000000E+00  0.0000000000000E+00
166  1.6500000000000E+00  0.0000000000000E+00  0.0000000000000E+00
167  1.6600000000000E+00  0.0000000000000E+00  0.0000000000000E+00
168  1.6700000000000E+00  0.0000000000000E+00  0.0000000000000E+00
169  1.6800000000000E+00  0.0000000000000E+00  0.0000000000000E+00
170  1.6900000000000E+00  0.0000000000000E+00  0.0000000000000E+00
171  1.7000000000000E+00  0.0000000000000E+00  0.0000000000000E+00
172  1.7100000000000E+00  0.0000000000000E+00  0.0000000000000E+00
173  1.7200000000000E+00  0.0000000000000E+00  0.0000000000000E+00
174  1.7300000000000E+00  0.0000000000000E+00  0.0000000000000E+00
175  1.7400000000000E+00  0.0000000000000E+00  0.0000000000000E+00
176  1.7500000000000E+00  0.0000000000000E+00  0.0000000000000E+00
177  1.7600000000000E+00  0.0000000000000E+00  0.0000000000000E+00
178  1.7700000000000E+00  0.0000000000000E+00  0.0000000000000E+00
179  1.7800000000000E+00  0.0000000000000E+00  0.0000000000000E+00
180  1.7900000000000E+00  0.0000000000000E+00  0.0000000000000E+00
181  1.8000000000000E+00  0.0000000000000E+00  0.0000000000000E+00
182  1.8100000000000E+00  0.0000000000000E+00  0.0000000000000E+00
183  1.8200000000000E+00  0.0000000000000E+00  0.0000000000000E+00
184  1.8300000000000E+00  0.0000000000000E+00  0.0000000000000E+00
185  1.8400000000000E+00  0.0000000000000E+00  0.0000000000000E+00
186  1.8500000000000E+00  0.0000000000000E+00  0.0000000000000E+00
187  1.8600000000000E+00  0.0000000000000E+00  0.0000000000000E+00
188  1.8700000000000E+00  0.0000000000000E+00  0.0000000000000E+00
189  1.8800000000000E+00  0.0000000000000E+00  0.0000000000000E+00
190  1.8900000000000E+00  0.0000000000000E+00  0.0000000000000E+00
191  1.9000000000000E+00  0.0000000000000E+00  0.0000000000000E+00
192  1.9100000000000E+00  0.0000000000000E+00  0.0000000000000E+00
193  1.9200000000000E+00  0.0000000000000E+00  0.0000000000000E+00
194  1.9300000000000E+00  0.0000000000000E+00  0.0000000000000E+00
195  1.9400000000000E+00  0.0000000000000E+00  0.0000000000000E+00
196  1.9500000000000E+00  0.0000000000000E+00  0.0000000000000E+00
197  1.9600000000000E+00  0.0000000000000E+00  0.0000000000000E+00
198  1.9700000000000E+00  0.0000000000000E+00  0.0000000000000E+00
199  1.9800000000000E+00  0.0000000000000E+00  0.0000000000000E+00
200  1.9900000000000E+00  0.0000000000000E+00  0.0000000000000E+00
201  2.0000000000000E+00  0.0000000000000E+00  0.0000000000000E+00
202  2.0100000000000E+00  0.0000000000000E+00  0.0000000000000E+00
203  2.0200000000000E+00  0.0000000000000E+00  0.0000000000000E+00
204  2.0300000000000E+00  0.0000000000000E+00  0.0000000000000E+00
205  2.0400000000000E+00  0.0000000000000E+00  0.0000000000000E+00
206  2.0500000000000E+00  0.0000000000000E+00  0.0000000000000E+00
207  2.0600000000000E+00  0.0000000000000E+00  0.0000000000000E+00
208  2.0700000000000E+00  0.0000000000000E+00  0.0000000000000E+00
209  2.0800000000000E+00  0.0000000000000E+00  0.0000000000000E+00
210  2.0900000000000E+00  0.0000000000000E+00  0.0000000000000E+00
211  2.1000000000000E+00  0.0000000000000E+00  0.0000000000000E+00
212  2.1100000000000E+00  0.0000000000000E+00  0.0000000000000E+00
213  2.1200000000000E+00  0.0000000000000E+00  0.0000000000000E+00
214  2.1300000000000E+00  0.0000000000000E+00  0.0000000000000E+00
215  2.1400000000000E+00  0.0000000000000E+00  0.0000000000000E+00
216  2.1500000000000E+00  0.0000000000000E+00  0.0000000000000E+00
217  2.1600000000000E+00  0.0000000000000E+00  0.0000000000000E+00
218  2.1700000000000E+00  0.0000000000000E+00  0.0000000000000E+00
219  2.1800000000000E+00  0.0000000000000E+00  0.0000000000000E+00
220  2.1900000000000E+00  0.0000000000000E+00  0.0000000000000E+00
221  2.2000000000000E+00  0.0000000000000E+00  0.0000000000000E+00
222  2.2100000000000E+00  0.0000000000000E+00  0.0000000000000E+00
223  2.2200000000000E+00  0.0000000000000E+00  0.0000000000000E+00
224  2.2300000000000E+00  0.0000000000000E+00  0.0000000000000E+00
225  2.2400000000000E+00  0.0000000000000E+00  0.0000000000000E+00
226  2.2500000000000E+00  0.0000000000000E+00  0.0000000000000E+00
227  2.2600000000000E+00  0.0000000000000E+00  0.0000000000000E+00
228  2.2700000000000E+00  0.0000000000000E+00  0.0000000000000E+00
229  2.2800000000000E+00  0.0000000000000E+00  0.0000000000000E+00
230  2.2900000000000E+00  0.0000000000000E+00  0.0000000000000E+00
231  2.3000000000000E+00  0.0000000000000E+00  0.0000000000000E+00
232  2.3100000000000E+00  0.0000000000000E+00  0.0000000000000E+00
233  2.3200000000000E+00  0.0000000000000E+00  0.0000000000000E+00
234  2.3300000000000E+00  0.0000000000000E+00  0.0000000000000E+00
235  2.3400000000000E+00  0.0000000000000E+00  0.0000000000000E+00
236  2.3500000000000E+00  0.0000000000000E+00  0.0000000000000E+00
237  2.3600000000000E+00  0.0000000000000E+00  0.0000000000000E+00
238  2.3700000000000E+00  0.0000000000000E+00  0.0000000000000E+00
239  2.3800000000000E+00  0.0000000000000E+00  0.0000000000000E+00
240  2.3900000000000E+00  0.0000000000000E+00  0.0000000000000E+00
241  2.4000000000000E+00  0.0000000000000E+00  0.0000000000000E+00
242  2.4100000000000E+00  0.0000000000000E+00  0.0000000000000E+00
243  2.4200000000000E+00  0.0000000000000E+00  0.0000000000000E+00
244  2.4300000000000E+00  0.0000000000000E+00  0.0000000000000E+00
245  2.4400000000000E+00  0.0000000000000E+00  0.0000000000000E+00
246  2.4500000000000E+00  0.0000000000000E+00  0.0000000000000E+00
247  2.4600000000000E+00  0.0000000000000E+00  0.0000000000000E+00
248  2.4700000000000E+00  0.0000000000000E+00  0.0000000000000E+00
249  2.4800000000000E+00  0.0000000000000E+00  0.0000000000000E+00
250  2.4900000000000E+00  0.0000000000000E+00  0.0000000000000E+00
251  2.5000000000000E+00  0.0000000000000E+00  0.0000000000000E+00
252  2.5100000000000E+00  0.0000000000000E+00  0.0000000000000E+00
253  2.5200000000000E+00  0.0000000000000E+00  0.0000000000000E+00
254  2.5300000000000E+00  0.0000000000000E+00  0.0000000000000E+00
255  2.5400000000000E+00  0.0000000000000E+00  0.0000000000000E+00
256  2.5500000000000E+00  0.0000000000000E+00  0.0000000000000E+00
257  2.5600000000000E+00  0.0000000000000E+00  0.0000000000000E+00
258  2.5700000000000E+00  0.0000000000000E+00  0.0000000000000E+00
259  2.5800000000000E+00  0.0000000000000E+00  0.0000000000000E+00
260  2.5900000000000E+00  0.0000000000000E+00  0.0000000000000E+00
261  2.6000000000000E+00  0.0000000000000E+00  0.0000000000000E+00
262  2.6100000000000E+00  0.0000000000000E+00  0.0000000000000E+00
263  2.6200000000000E+00  0.0000000000000E+00  0.0000000000000E+00
264  2.6300000000000E+00  0.0000000000000E+00  0.0000000000000E+00
265  2.6400000000000E+00  0.0000000000000E+00  0.0000000000000E+00
266  2.6500000000000E+00  0.0000000000000E+00  0.0000000000000E+00
267  2.6600000000000E+00  0.0000000000000E+00  0.0000000000000E+00
268  2.6700000000000E+00  0.0000000000000E+00  0.0000000000000E+00
269  2.6800000000000E+00  0.0000000000000E+00  0.0000000000000E+00
270  2.6900000000000E+00  0.0000000000000E+00  0.0000000000000E+00
271  2.7000000000000E+00  0.0000000000000E+00  0.0000000000000E+00
272  2.7100000000000E+00  0.0000000000000E+00  0.0000000000000E+00
273  2.7200000000000E+00  0.0000000000000E+00  0.0000000000000E+00
274  2.7300000000000E+00  0.0000000000000E+00  0.0000000000000E+00
275  2.7400000000000E+00  0.0000000000000E+00  0.0000000000000E+00
276  2.7500000000000E+00  0.0000000000000E+00  0.0000000000000E+00
277  2.7600000000000E+00  0.0000000000000E+00  0.0000000000000E+00
278  2.7700000000000E+00  0.0000000000000E+00  0.0000000000000E+00
279  2.7800000000000E+00  0.0000000000000E+00  0.0000000000000E+00
280  2.7900000000000E+00  0.0000000000000E+00  0.0000000000000E+00
281  2.8000000000000E+00  0.0000000000000E+00  0.0000000000000E+00
282  2.8100000000000E+00  0.0000000000000E+00  0.0000000000000E+00
283  2.8200000000000E+00  0.0000000000000E+00  0.0000000000000E+00
284  2.8300000000000E+00  0.0000000000000E+00  0.0000000000000E+00
285  2.8400000000000E+00  0.0000000000000E+00  0.0000000000000E+00
286  2.8500000000000E+00  0.0000000000000E+00  0.0000000000000E+00
287  2.8600000000000E+00  0.0000000000000E+00  0.0000000000000E+00
288  2.8700000000000E+00  0.0000000000000E+00  0.0000000000000E+00
289  2.8800000000000E+00  0.0000000000000E+00  0.0000000000000E+00
290  2.8900000000000E+00  0.0000000000000E+00  0.0000000000000E+00
291  2.9000000000000E+00  0.0000000000000E+00  0.0000000000000E+00
292  2.9100000000000E+00  0.0000000000000E+00  0.0000000000000E+00
293  2.9200000000000E+00  0.0000000000000E+00  0.0000000000000E+00
294  2.9300000000000E+00  0.0000000000000E+00  0.0000000000000E+00
295  2.9400000000000E+00  0.0000000000000E+00  0.0000000000000E+00
296  2.9500000000000E+00  0.0000000000000E+00  0.0000000000000E+00
297  2.9600000000000E+00  0.0000000000000E+00  0.0000000000000E+00
298  2.9700000000000E+00  0.0000000000000E+00  0.0000000000000E+00
299  2.9800000000000E+00  0.0000000000000E+00  0.0000000000000E+00
300  2.9900000000000E+00  0.0000000000000E+00  0.0000000000000E+00
301  3.0000000000000E+00  0.0000000000000E+00  0.0000000000000E+00
302  3.0100000000000E+00  0.0000000000000E+00  0.0000000000000E+00
303  3.0200000000000E+00  0.0000000000000E+00  0.0000000000000E+00
304  3.0300000000000E+00  0.0000000000000E+00  0.0000000000000E+00
305  3.0400000000000E+00  0.0000000000000E+00  0.0000000000000E+00
306  3.0500000000000E+00  0.0000000000000E+00  0.0000000000000E+00
307  3.0600000000000E+00  0.0000000000000E+00  0.0000000000000E+00
308  3.0700000000000E+00  0.0000000000000E+00  0.0000000000000E+00
309  3.0800000000000E+00  0.0000000000000E+00  0.0000000000000E+00
310  3.0900000000000E+00  0.0000000000000E+00  0.0000000000000E+00
311  3.1000000000000E+00  0.0000000000000E+00  0.0000000000000E+00
312  3.1100000000000E+00  0.0000000000000E+00  0.0000000000000E+00
313  3.1200000000000E+00  0.0000000000000E+00  0.0000000000000E+00
314  3.1300000000000E+00  0.0000000000000E+00  0.0000000000000E+00
315  3.1400000000000E+00  0.0000000000000E+00  0.0000000000000E+00
316  3.1500000000000E+00  0.0000000000000E+00  0.0000000000000E+00
317  3.1600000000000E+00  0.0000000000000E+00  0.0000000000000E+00
318  3.1700000000000E+00  0.0000000000000E+00  0.0000000000000E+00
319  3.1800000000000E+00  0.0000000000000E+00  0.0000000000000E+00
320  3.1900000000000E+00  0.0000000000000E+00  0.0000000000000E+00
321  3.2000000000000E+00  0.0000000000000E+00  0.0000000000000E+00
322  3.2100000000000E+00  0.0000000000000E+00  0.0000000000000E+00
323  3.2200000000000E+00  0.0000000000000E+00  0.0000000000000E+00
324  3.2300000000000E+00  0.0000000000000E+00  0.0000000000000E+00
325  3.2400000000000E+00  0.0000000000000E+00  0.0000000000000E+00
326  3.2500000000000E+00  0.0000000000000E+00  0.0000000000000E+00
327  3.2600000000000E+00  0.0000000000000E+00  0.0000000000000E+00
328  3.2700000000000E+00  0.0000000000000E+00  0.0000000000000E+00
329  3.2800000000000E+00  0.0000000000000E+00  0.0000000000000E+00
330  3.2900000000000E+00  0.0000000000000E+00  0.0000000000000E+00
331  3.3000000000000E+00  0.0000000000000E+00  0.0000000000000E+00
332  3.3100000000000E+00  0.0000000000000E+00  0.0000000000000E+00
333  3.3200000000000E+00  0.0000000000000E+00  0.0000000000000E+00
334  3.3300000000000E+00  0.0000000000000E+00  0.0000000000000E+00
335  3.3400000000000E+00  0.0000000000000E+00  0.0000000000000E+00
336  3.3500000000000E+00  0.0000000000000E+00  0.0000000000000E+00
337  3.3600000000000E+00  0.0000000000000E+00  0.0000000000000E+00
338  3.3700000000000E+00  0.0000000000000E+00  0.0000000000000E+00
339  3.3800000000000E+00  0.0000000000000E+00  0.0000000000000E+00
340  3.3900000000000E+00  0.0000000000000E+00  0.0000000000000E+00
341  3.4000000000000E+00  0.0000000000000E+00  0.0000000000000E+00
342  3.4100000000000E+00  0.0000000000000E+00  0.0000000000000E+00
343  3.4200000000000E+00  0.0000000000000E+00  0.0000000000000E+00
344  3.4300000000000E+00  0.0000000000000E+00  0.0000000000000E+00
345  3.4400000000000E+00  0.0000000000000E+00  0.0000000000000E+00
346  3.4500000000000E+00  0.0000000000000E+00  0.0000000000000E+00
347  3.4600000000000E+00  0.0000000000000E+00  0.0000000000000E+00
348  3.4700000000000E+00  0.0000000000000E+00  0.0000000000000E+00
349  3.4800000000000E+00  0.0000000000000E+00  0.0000000000000E+00
350  3.4900000000000E+00  0.0000000000000E+00  0.0000000000000E+00
351  3.5000000000000E+00  0.0000000000000E+00  0.0000000000000E+00
352  3.5100000000000E+00  0.0000000000000E+00  0.0000000000000E+00
353  3.5200000000000E+00  0.0000000000000E+00  0.0000000000000E+00
354  3.5300000000000E+00  0.0000000000000E+00  0.0000000000000E+00
355  3.5400000000000E+00  0.0000000000000E+00  0.0000000000000E+00
356  3.5500000000000E+00  0.0000000000000E+00  0.0000000000000E+00
357  3.5600000000000E+00  0.0000000000000E+00  0.0000000000000E+00
358  3.5700000000000E+00  0.0000000000000E+00  0.0000000000000E+00
359  3.5800000000000E+00  0.0000000000000E+00  0.0000000000000E+00
360  3.5900000000000E+00  0.0000000000000E+00  0.0000000000000E+00
361  3.6000000000000E+00  0.0000000000000E+00  0.0000000000000E+00
362  3.6100000000000E+00  0.0000000000000E+00  0.0000000000000E+00
363  3.6200000000000E+00  0.0000000000000E+00  0.0000000000000E+00
364  3.6300000000000E+00  0.0000000000000E+00  0.0000000000000E+00
365  3.6400000000000E+00  0.0000000000000E+00  0.0000000000000E+00
366  3.6500000000000E+00  0.0000000000000E+00  0.0000000000000E+00
367  3.6600000000000E+00  0.0000000000000E+00  0.0000000000000E+00
368  3.6700000000000E+00  0.0000000000000E+00  0.0000000000000E+00
369  3.6800000000000E+00  0.0000000000000E+00  0.0000000000000E+00
370  3.6900000000000E+00  0.0000000000000E+00  0.0000000000000E+00
371  3.7000000000000E+00  0.0000000000000E+00  0.0000000000000E+00
372  3.7100000000000E+00  0.0000000000000E+00  0.0000000000000E+00
373  3.7200000000000E+00  0.0000000000000E+00  0.0000000000000E+00
374  3.7300000000000E+00  0.0000000000000E+00  0.0000000000000E+00
375  3.7400000000000E+00  0.0000000000000E+00  0.0000000000000E+00
376  3.7500000000000E+00  0.0000000000000E+00  0.0000000000000E+00
377  3.7600000000000E+00  0.0000000000000E+00  0.0000000000000E+00
378  3.7700000000000E+00  0.0000000000000E+00  0.0000000000000E+00
379  3.7800000000000E+00  0.0000000000000E+00  0.0000000000000E+00
380  3.7900000000000E+00  0.0000000000000E+00  0.0000000000000E+00
381  3.8000000000000E+00  0.0000000000000E+00  0.0000000000000E+00
382  3.8100000000000E+00  0.0000000000000E+00  0.0000000000000E+00
383  3.8200000000000E+00  0.0000000000000E+00  0.0000000000000E+00
384  3.8300000000000E+00  0.0000000000000E+00  0.0000000000000E+00
385  3.8400000000000E+00  0.0000000000000E+00  0.0000000000000E+00
386  3.8500000000000E+00  0.0000000000000E+00  0.0000000000000E+00
387  3.8600000000000E+00  0.0000000000000E+00  0.0000000000000E+00
388  3.8700000000000E+00  0.0000000000000E+00  0.0000000000000E+00
389  3.8800000000000E+00  0.0000000000000E+00  0.0000000000000E+00
390  3.8900000000000E+00  0.0000000000000E+00  0.0000000000000E+00
391  3.9000000000000E+00  0.0000000000000E+00  0.0000000000000E+00
392  3.9100000000000E+00  0.0000000000000E+00  0.0000000000000E+00
393  3.9200000000000E+00  0.0000000000000E+00  0.0000000000000E+00
394  3.9300000000000E+00  0.0000000000000E+00  0.0000000000000E+00
395  3.9400000000000E+00  0.0000000000000E+00  0.0000000000000E+00
396  3.9500000000000E+00  0.0000000000000E+00  0.0000000000000E+00
397  3.9600000000000E+00  0.0000000000000E+00  0.0000000000000E+00
398  3.9700000000000E+00  0.0000000000000E+00  0.0000000000000E+00
399  3.9800000000000E+00  0.0000000000000E+00  0.0000000000000E+00
400  3.9900000000000E+00  0.0000000000000E+00  0.0000000000000E+00
401  4.0000000000000E+00  0.0000000000000E+00  0.0000000000000E+00
402  4.0100000000000E+00  0.0000000000000E+00  0.0000000000000E+00
403  4.0200000000000E+00  0.0000000000000E+00  0.0000000000000E+00
404  4.0300000000000E+00  0.0000000000000E+00  0.0000000000000E+00
405  4.0400000000000E+00  0.0000000000000E+00  0.0000000000000E+00
406  4.0500000000000E+00  0.0000000000000E+00  0.0000000000000E+00
407  4.0600000000000E+00  0.0000000000000E+00  0.0000000000000E+00
408  4.0700000000000E+00  0.0000000000000E+00  0.0000000000000E+00
409  4.0800000000000E+00  0.0000000000000E+00  0.0000000000000E+00
410  4.0900000000000E+00  0.0000000000000E+00  0.0000000000000E+00
411  4.1000000000000E+00  0.0000000000000E+00  0.0000000000000E+00
412  4.1100000000000E+00  0.0000000000000E+00  0.0000000000000E+00
413  4.1200000000000E+00  0.0000000000000E+00  0.0000000000000E+00
414  4.1300000000000E+00  0.0000000000000E+00  0.0000000000000E+00
415  4.1400000000000E+00  0.0000000000000E+00  0.0000000000000E+00
416  4.1500000000000E+00  0.0000000000000E+00  0.0000000000000E+00
417  4.1600000000000E+00  0.0000000000000E+00  0.0000000000000E+00
418  4.1700000000000E+00  0.0000000000000E+00  0.0000000000000E+00
419  4.1800000000000E+00  0.0000000000000E+00  0.0000000000000E+00
420  4.1900000000000E+00  0.0000000000000E+00  0.0000000000000E+00
421  4.2000000000000E+00  0.0000000000000E+00  0.0000000000000E+00
422  4.2100000000000E+00  0.0000000000000E+00  0.0000000000000E+00
423  4.2200000000000E+00  0.0000000000000E+00  0.0000000000000E+00
424  4.2300000000000E+00  0.0000000000000E+00  0.0000000000000E+00
425  4.2400000000000E+00  0.0000000000000E+00  0.0000000000000E+00
426  4.2500000000000E+00  0.0000000000000E+00  0.0000000000000E+00
427  4.2600000000000E+00  0.0000000000000E+00  0.0000000000000E+00
428  4.2700000000000E+00  0.0000000000000E+00  0.0000000000000E+00
429  4.2800000000000E+00  0.0000000000000E+00  0.0000000000000E+00
430  4.2900000000000E+00  0.0000000000000E+00  0.0000000000000E+00
431  4.3000000000000E+00  0.0000000000000E+00  0.0000000000000E+00
432  4.3100000000000E+00  0.0000000000000E+00  0.0000000000000E+00
433  4.3200000000000E+00  0.0000000000000E+00  0.0000000000000E+00
434  4.3300000000000E+00  0.0000000000000E+00  0.0000000000000E+00
435  4.3400000000000E+00  0.0000000000000E+00  0.0000000000000E+00
436  4.3500000000000E+00  0.0000000000000E+00  0.0000000000000E+00
437  4.3600000000000E+00  0.0000000000000E+00  0.0000000000000E+00
438  4.3700000000000E+00  0.0000000000000E+00  0.0000000000000E+00
439  4.3800000000000E+00  0.0000000000000E+00  0.0000000000000E+00
440  4.3900000000000E+00  0.0000000000000E+00  0.0000000000000E+00
441  4.4000000000000E+00  0.0000000000000E+00  0.0000000000000E+00
442  4.4100000000000E+00  0.0000000000000E+00  0.0000000000000E+00
443  4.4200000000000E+00  0.0000000000000E+00  0.0000000000000E+00