Cd    ONCVPSP-3.2.3.1  r_core=   1.25838   1.30423   1.35174
48.0000     20.0000      170510    zatom,zion,pspd
8      11   2     4   600     0    pspcod,pspxc,lmax,lloc,mmax,r2well
5.99000000  6.00000000  0.00000000    rchrg fchrg qchrg
2     2     2     0     0    nproj
1     1           extension_switch
0                         5.1917189413986E+01  3.5342342816008E+00
1  0.0000000000000E+00 -4.5713794971647E-09  8.2837029458105E-09
2  1.0000000000000E-02  1.1010629751505E-01 -2.9198056753103E-02
3  2.0000000000000E-02  2.1972273658473E-01 -5.7925261158176E-02
4  3.0000000000000E-02  3.2836364776396E-01 -8.5717166948627E-02
5  4.0000000000000E-02  4.3555167591061E-01 -1.1212202712973E-01
6  5.0000000000000E-02  5.4082177929268E-01 -1.3670686356090E-01
7  6.0000000000000E-02  6.4372504237897E-01 -1.5906320651872E-01
8  7.0000000000000E-02  7.4383224569977E-01 -1.7881240418545E-01
9  8.0000000000000E-02  8.4073714073563E-01 -1.9561041029163E-01
10  9.0000000000000E-02  9.3405938333899E-01 -2.0915196819335E-01
11  1.0000000000000E-01  1.0234470856093E+00 -2.1917412129410E-01
12  1.1000000000000E-01  1.1085789533024E+00 -2.2545899270057E-01
13  1.2000000000000E-01  1.1891659836213E+00 -2.2783579108520E-01
14  1.3000000000000E-01  1.2649527064600E+00 -2.2618201464055E-01
15  1.4000000000000E-01  1.3357179606876E+00 -2.2042384046474E-01
16  1.5000000000000E-01  1.4012752057150E+00 -2.1053570241383E-01
17  1.6000000000000E-01  1.4614723771925E+00 -1.9653907608897E-01
18  1.7000000000000E-01  1.5161913040960E+00 -1.7850050488934E-01
19  1.8000000000000E-01  1.5653467124904E+00 -1.5652891565711E-01
20  1.9000000000000E-01  1.6088848487622E+00 -1.3077228607843E-01
21  2.0000000000000E-01  1.6467817619367E+00 -1.0141373841586E-01
22  2.1000000000000E-01  1.6790412907016E+00 -6.8667145084045E-02
23  2.2000000000000E-01  1.7056928058305E+00 -3.2772340819534E-02
24  2.3000000000000E-01  1.7267887627296E+00  6.0099564497289E-03
25  2.4000000000000E-01  1.7424021217367E+00  4.7403408614326E-02
26  2.5000000000000E-01  1.7526236955222E+00  9.1121393691534E-02
27  2.6000000000000E-01  1.7575594834370E+00  1.3687230391727E-01
28  2.7000000000000E-01  1.7573280519085E+00  1.8436469543247E-01
29  2.8000000000000E-01  1.7520580180066E+00  2.3331218294739E-01
30  2.9000000000000E-01  1.7418856901329E+00  2.8343797852495E-01
31  3.0000000000000E-01  1.7269529154704E+00  3.3447898147310E-01
32  3.1000000000000E-01  1.7074051784598E+00  3.8618933612784E-01
33  3.2000000000000E-01  1.6833899882422E+00  4.3834338586398E-01
34  3.3000000000000E-01  1.6550555858456E+00  4.9073796477173E-01
35  3.4000000000000E-01  1.6225499940389E+00  5.4319398283057E-01
36  3.5000000000000E-01  1.5860204243873E+00  5.9555727582062E-01
37  3.6000000000000E-01  1.5456130472826E+00  6.4769870733260E-01
38  3.7000000000000E-01  1.5014731217724E+00  6.9951352675154E-01
39  3.8000000000000E-01  1.4537454730568E+00  7.5092000366504E-01
40  3.9000000000000E-01  1.4025752967412E+00  8.0185737544828E-01
41  4.0000000000000E-01  1.3481092605238E+00  8.5228316047120E-01
42  4.1000000000000E-01  1.2904968661250E+00  9.0216990413046E-01
43  4.2000000000000E-01  1.2298920271158E+00  9.5150143841762E-01
44  4.3000000000000E-01  1.1664548120252E+00  1.0002687477044E+00
45  4.4000000000000E-01  1.1003532968520E+00  1.0484655435910E+00
46  4.5000000000000E-01  1.0317654669972E+00  1.0960836597890E+00
47  4.6000000000000E-01  9.6088110577778E-01  1.1431083839057E+00
48  4.7000000000000E-01  8.8790360516039E-01  1.1895138465003E+00
49  4.8000000000000E-01  8.1305163421866E-01  1.2352585887964E+00
50  4.9000000000000E-01  7.3656060210583E-01  1.2802814288843E+00
51  5.0000000000000E-01  6.5868385503781E-01  1.3244977421390E+00
52  5.1000000000000E-01  5.7969355088069E-01  1.3677962649322E+00
53  5.2000000000000E-01  4.9988116036615E-01  1.4100365216522E+00
54  5.3000000000000E-01  4.1955755064595E-01  1.4510469636675E+00
55  5.4000000000000E-01  3.3905261472110E-01  1.4906238953993E+00
56  5.5000000000000E-01  2.5871441910312E-01  1.5285312473407E+00
57  5.6000000000000E-01  1.7890785175664E-01  1.5645012388984E+00
58  5.7000000000000E-01  1.0001276269062E-01  1.5982359557599E+00
59  5.8000000000000E-01  2.2421600407530E-02  1.6294098472924E+00
60  5.9000000000000E-01 -5.3463441536657E-02  1.6576731298182E+00
61  6.0000000000000E-01 -1.2723374245344E-01  1.6826560616499E+00
62  6.1000000000000E-01 -1.9847800062121E-01  1.7039740361688E+00
63  6.2000000000000E-01 -2.6678636067845E-01  1.7212334200734E+00
64  6.3000000000000E-01 -3.3175486557088E-01  1.7340380459716E+00
65  6.4000000000000E-01 -3.9299016721466E-01  1.7419962517643E+00
66  6.5000000000000E-01 -4.5011442202726E-01  1.7447283443968E+00
67  6.6000000000000E-01 -5.0277029070703E-01  1.7418743527858E+00
68  6.7000000000000E-01 -5.5062595621489E-01  1.7331019242651E+00
69  6.8000000000000E-01 -5.9338007007576E-01  1.7181142111825E+00
70  6.9000000000000E-01 -6.3076653489917E-01  1.6966575893764E+00
71  7.0000000000000E-01 -6.6255903053823E-01  1.6685290483846E+00
72  7.1000000000000E-01 -6.8857519262070E-01  1.6335830945012E+00
73  7.2000000000000E-01 -7.0868035529545E-01  1.5917380122187E+00
74  7.3000000000000E-01 -7.2279077495048E-01  1.5429813371850E+00
75  7.4000000000000E-01 -7.3087625825797E-01  1.4873744043910E+00
76  7.5000000000000E-01 -7.3296212623423E-01  1.4250558489549E+00
77  7.6000000000000E-01 -7.2913045577929E-01  1.3562439531123E+00
78  7.7000000000000E-01 -7.1952055136062E-01  1.2812377518067E+00
79  7.8000000000000E-01 -7.0432861188347E-01  1.2004168301985E+00
80  7.9000000000000E-01 -6.8380657115337E-01  1.1142397691243E+00
81  8.0000000000000E-01 -6.5826010444912E-01  1.0232412186591E+00
82  8.1000000000000E-01 -6.2804580834959E-01  9.2802760501938E-01
83  8.2000000000000E-01 -5.9356757578520E-01  8.2927150159091E-01
84  8.3000000000000E-01 -5.5527220310569E-01  7.2770472047759E-01
85  8.4000000000000E-01 -5.1364428044417E-01  6.2411020609651E-01
86  8.5000000000000E-01 -4.6920043052323E-01  5.1931283647410E-01
87  8.6000000000000E-01 -4.2248297406375E-01  4.1416926062925E-01
88  8.7000000000000E-01 -3.7405311182281E-01  3.0955692123682E-01
89  8.8000000000000E-01 -3.2448372377236E-01  2.0636243024238E-01
90  8.9000000000000E-01 -2.7435189480965E-01  1.0546948084495E-01
91  9.0000000000000E-01 -2.2423128347052E-01  7.7464919392269E-03
92  9.1000000000000E-01 -1.7468445520851E-01 -8.5965809630496E-02
93  9.2000000000000E-01 -1.2625530483106E-01 -1.7486665793671E-01
94  9.3000000000000E-01 -7.9461693478508E-02 -2.5820715502641E-01
95  9.4000000000000E-01 -3.4788424094104E-02 -3.3530160524006E-01
96  9.5000000000000E-01  7.3193243710756E-03 -4.0553807178447E-01
97  9.6000000000000E-01  4.6461989715181E-02 -4.6838796035941E-01
98  9.7000000000000E-01  8.2290940006833E-02 -5.2341444820713E-01
99  9.8000000000000E-01  1.1451301182966E-01 -5.7027959409913E-01
100  9.9000000000000E-01  1.4289418921392E-01 -6.0874998514685E-01
101  1.0000000000000E+00  1.6726235326324E-01 -6.3870080025329E-01
102  1.0100000000000E+00  1.8750904714696E-01 -6.6011819507398E-01
103  1.0200000000000E+00  2.0359021817430E-01 -6.7309994254812E-01
104  1.0300000000000E+00  2.1552591588019E-01 -6.7785429260167E-01
105  1.0400000000000E+00  2.2339894306225E-01 -6.7469704557637E-01
106  1.0500000000000E+00  2.2735247505358E-01 -6.6404686551060E-01
107  1.0600000000000E+00  2.2758668162418E-01 -6.4641889232819E-01
108  1.0700000000000E+00  2.2435440210829E-01 -6.2241673993945E-01
109  1.0800000000000E+00  2.1795594405457E-01 -5.9272300127314E-01
110  1.0900000000000E+00  2.0873309056737E-01 -5.5808840696526E-01
111  1.1000000000000E+00  1.9706241714423E-01 -5.1931981147685E-01
112  1.1100000000000E+00  1.8334803240379E-01 -4.7726720394479E-01
113  1.1200000000000E+00  1.6801386782597E-01 -4.3280995965616E-01
114  1.1300000000000E+00  1.5149565312722E-01 -3.8684256799415E-01
115  1.1400000000000E+00  1.3423271969040E-01 -3.4026008278314E-01
116  1.1500000000000E+00  1.1665977967193E-01 -2.9394355003236E-01
117  1.1600000000000E+00  9.9198831348468E-02 -2.4874567321030E-01
118  1.1700000000000E+00  8.2251341162301E-02 -2.0547697609033E-01
119  1.1800000000000E+00  6.6190849350191E-02 -1.6489271706626E-01
120  1.1900000000000E+00  5.1356140867533E-02 -1.2768079993830E-01
121  1.2000000000000E+00  3.8045117749197E-02 -9.4450916577413E-02
122  1.2100000000000E+00  2.6509495965774E-02 -6.5725134279070E-02
123  1.2200000000000E+00  1.6956201611980E-02 -4.1943990522509E-02
124  1.2300000000000E+00  9.5051946668086E-03 -2.3367885200246E-02
125  1.2400000000000E+00  4.2615415199434E-03 -1.0250155852847E-02
126  1.2500000000000E+00  1.4741593891929E-03 -3.1929991837781E-03
127  1.2600000000000E+00  4.3998002466784E-04 -6.6289071303874E-04
128  1.2700000000000E+00  5.6203603649983E-05 -3.7709098164195E-05
129  1.2800000000000E+00 -2.0575991916126E-05 -3.8625952688535E-07
130  1.2900000000000E+00  2.0316528375583E-06 -1.5242226654689E-06
131  1.3000000000000E+00  4.1780985837544E-06 -2.3705923022417E-06
132  1.3100000000000E+00 -1.4812082567206E-06  2.4223281759774E-06
133  1.3200000000000E+00  0.0000000000000E+00  0.0000000000000E+00
134  1.3300000000000E+00  0.0000000000000E+00  0.0000000000000E+00
135  1.3400000000000E+00  0.0000000000000E+00  0.0000000000000E+00
136  1.3500000000000E+00  0.0000000000000E+00  0.0000000000000E+00
137  1.3600000000000E+00  0.0000000000000E+00  0.0000000000000E+00
138  1.3700000000000E+00  0.0000000000000E+00  0.0000000000000E+00
139  1.3800000000000E+00  0.0000000000000E+00  0.0000000000000E+00
140  1.3900000000000E+00  0.0000000000000E+00  0.0000000000000E+00
141  1.4000000000000E+00  0.0000000000000E+00  0.0000000000000E+00
142  1.4100000000000E+00  0.0000000000000E+00  0.0000000000000E+00
143  1.4200000000000E+00  0.0000000000000E+00  0.0000000000000E+00
144  1.4300000000000E+00  0.0000000000000E+00  0.0000000000000E+00
145  1.4400000000000E+00  0.0000000000000E+00  0.0000000000000E+00
146  1.4500000000000E+00  0.0000000000000E+00  0.0000000000000E+00
147  1.4600000000000E+00  0.0000000000000E+00  0.0000000000000E+00
148  1.4700000000000E+00  0.0000000000000E+00  0.0000000000000E+00
149  1.4800000000000E+00  0.0000000000000E+00  0.0000000000000E+00
150  1.4900000000000E+00  0.0000000000000E+00  0.0000000000000E+00
151  1.5000000000000E+00  0.0000000000000E+00  0.0000000000000E+00
152  1.5100000000000E+00  0.0000000000000E+00  0.0000000000000E+00
153  1.5200000000000E+00  0.0000000000000E+00  0.0000000000000E+00
154  1.5300000000000E+00  0.0000000000000E+00  0.0000000000000E+00
155  1.5400000000000E+00  0.0000000000000E+00  0.0000000000000E+00
156  1.5500000000000E+00  0.0000000000000E+00  0.0000000000000E+00
157  1.5600000000000E+00  0.0000000000000E+00  0.0000000000000E+00
158  1.5700000000000E+00  0.0000000000000E+00  0.0000000000000E+00
159  1.5800000000000E+00  0.0000000000000E+00  0.0000000000000E+00
160  1.5900000000000E+00  0.0000000000000E+00  0.0000000000000E+00
161  1.6000000000000E+00  0.0000000000000E+00  0.0000000000000E+00
162  1.6100000000000E+00  0.0000000000000E+00  0.0000000000000E+00
163  1.6200000000000E+00  0.0000000000000E+00  0.0000000000000E+00
164  1.6300000000000E+00  0.0000000000000E+00  0.0000000000000E+00
165  1.6400000000000E+00  0.0000000000000E+00  0.0000000000000E+00
166  1.6500000000000E+00  0.0000000000000E+00  0.0000000000000E+00
167  1.6600000000000E+00  0.0000000000000E+00  0.0000000000000E+00
168  1.6700000000000E+00  0.0000000000000E+00  0.0000000000000E+00
169  1.6800000000000E+00  0.0000000000000E+00  0.0000000000000E+00
170  1.6900000000000E+00  0.0000000000000E+00  0.0000000000000E+00
171  1.7000000000000E+00  0.0000000000000E+00  0.0000000000000E+00
172  1.7100000000000E+00  0.0000000000000E+00  0.0000000000000E+00
173  1.7200000000000E+00  0.0000000000000E+00  0.0000000000000E+00
174  1.7300000000000E+00  0.0000000000000E+00  0.0000000000000E+00
175  1.7400000000000E+00  0.0000000000000E+00  0.0000000000000E+00
176  1.7500000000000E+00  0.0000000000000E+00  0.0000000000000E+00
177  1.7600000000000E+00  0.0000000000000E+00  0.0000000000000E+00
178  1.7700000000000E+00  0.0000000000000E+00  0.0000000000000E+00
179  1.7800000000000E+00  0.0000000000000E+00  0.0000000000000E+00
180  1.7900000000000E+00  0.0000000000000E+00  0.0000000000000E+00
181  1.8000000000000E+00  0.0000000000000E+00  0.0000000000000E+00
182  1.8100000000000E+00  0.0000000000000E+00  0.0000000000000E+00
183  1.8200000000000E+00  0.0000000000000E+00  0.0000000000000E+00
184  1.8300000000000E+00  0.0000000000000E+00  0.0000000000000E+00
185  1.8400000000000E+00  0.0000000000000E+00  0.0000000000000E+00
186  1.8500000000000E+00  0.0000000000000E+00  0.0000000000000E+00
187  1.8600000000000E+00  0.0000000000000E+00  0.0000000000000E+00
188  1.8700000000000E+00  0.0000000000000E+00  0.0000000000000E+00
189  1.8800000000000E+00  0.0000000000000E+00  0.0000000000000E+00
190  1.8900000000000E+00  0.0000000000000E+00  0.0000000000000E+00
191  1.9000000000000E+00  0.0000000000000E+00  0.0000000000000E+00
192  1.9100000000000E+00  0.0000000000000E+00  0.0000000000000E+00
193  1.9200000000000E+00  0.0000000000000E+00  0.0000000000000E+00
194  1.9300000000000E+00  0.0000000000000E+00  0.0000000000000E+00
195  1.9400000000000E+00  0.0000000000000E+00  0.0000000000000E+00
196  1.9500000000000E+00  0.0000000000000E+00  0.0000000000000E+00
197  1.9600000000000E+00  0.0000000000000E+00  0.0000000000000E+00
198  1.9700000000000E+00  0.0000000000000E+00  0.0000000000000E+00
199  1.9800000000000E+00  0.0000000000000E+00  0.0000000000000E+00
200  1.9900000000000E+00  0.0000000000000E+00  0.0000000000000E+00
201  2.0000000000000E+00  0.0000000000000E+00  0.0000000000000E+00
202  2.0100000000000E+00  0.0000000000000E+00  0.0000000000000E+00
203  2.0200000000000E+00  0.0000000000000E+00  0.0000000000000E+00
204  2.0300000000000E+00  0.0000000000000E+00  0.0000000000000E+00
205  2.0400000000000E+00  0.0000000000000E+00  0.0000000000000E+00
206  2.0500000000000E+00  0.0000000000000E+00  0.0000000000000E+00
207  2.0600000000000E+00  0.0000000000000E+00  0.0000000000000E+00
208  2.0700000000000E+00  0.0000000000000E+00  0.0000000000000E+00
209  2.0800000000000E+00  0.0000000000000E+00  0.0000000000000E+00
210  2.0900000000000E+00  0.0000000000000E+00  0.0000000000000E+00
211  2.1000000000000E+00  0.0000000000000E+00  0.0000000000000E+00
212  2.1100000000000E+00  0.0000000000000E+00  0.0000000000000E+00
213  2.1200000000000E+00  0.0000000000000E+00  0.0000000000000E+00
214  2.1300000000000E+00  0.0000000000000E+00  0.0000000000000E+00
215  2.1400000000000E+00  0.0000000000000E+00  0.0000000000000E+00
216  2.1500000000000E+00  0.0000000000000E+00  0.0000000000000E+00
217  2.1600000000000E+00  0.0000000000000E+00  0.0000000000000E+00
218  2.1700000000000E+00  0.0000000000000E+00  0.0000000000000E+00
219  2.1800000000000E+00  0.0000000000000E+00  0.0000000000000E+00
220  2.1900000000000E+00  0.0000000000000E+00  0.0000000000000E+00
221  2.2000000000000E+00  0.0000000000000E+00  0.0000000000000E+00
222  2.2100000000000E+00  0.0000000000000E+00  0.0000000000000E+00
223  2.2200000000000E+00  0.0000000000000E+00  0.0000000000000E+00
224  2.2300000000000E+00  0.0000000000000E+00  0.0000000000000E+00
225  2.2400000000000E+00  0.0000000000000E+00  0.0000000000000E+00
226  2.2500000000000E+00  0.0000000000000E+00  0.0000000000000E+00
227  2.2600000000000E+00  0.0000000000000E+00  0.0000000000000E+00
228  2.2700000000000E+00  0.0000000000000E+00  0.0000000000000E+00
229  2.2800000000000E+00  0.0000000000000E+00  0.0000000000000E+00
230  2.2900000000000E+00  0.0000000000000E+00  0.0000000000000E+00
231  2.3000000000000E+00  0.0000000000000E+00  0.0000000000000E+00
232  2.3100000000000E+00  0.0000000000000E+00  0.0000000000000E+00
233  2.3200000000000E+00  0.0000000000000E+00  0.0000000000000E+00
234  2.3300000000000E+00  0.0000000000000E+00  0.0000000000000E+00
235  2.3400000000000E+00  0.0000000000000E+00  0.0000000000000E+00
236  2.3500000000000E+00  0.0000000000000E+00  0.0000000000000E+00
237  2.3600000000000E+00  0.0000000000000E+00  0.0000000000000E+00
238  2.3700000000000E+00  0.0000000000000E+00  0.0000000000000E+00
239  2.3800000000000E+00  0.0000000000000E+00  0.0000000000000E+00
240  2.3900000000000E+00  0.0000000000000E+00  0.0000000000000E+00
241  2.4000000000000E+00  0.0000000000000E+00  0.0000000000000E+00
242  2.4100000000000E+00  0.0000000000000E+00  0.0000000000000E+00
243  2.4200000000000E+00  0.0000000000000E+00  0.0000000000000E+00
244  2.4300000000000E+00  0.0000000000000E+00  0.0000000000000E+00
245  2.4400000000000E+00  0.0000000000000E+00  0.0000000000000E+00
246  2.4500000000000E+00  0.0000000000000E+00  0.0000000000000E+00
247  2.4600000000000E+00  0.0000000000000E+00  0.0000000000000E+00
248  2.4700000000000E+00  0.0000000000000E+00  0.0000000000000E+00
249  2.4800000000000E+00  0.0000000000000E+00  0.0000000000000E+00
250  2.4900000000000E+00  0.0000000000000E+00  0.0000000000000E+00
251  2.5000000000000E+00  0.0000000000000E+00  0.0000000000000E+00
252  2.5100000000000E+00  0.0000000000000E+00  0.0000000000000E+00
253  2.5200000000000E+00  0.0000000000000E+00  0.0000000000000E+00
254  2.5300000000000E+00  0.0000000000000E+00  0.0000000000000E+00
255  2.5400000000000E+00  0.0000000000000E+00  0.0000000000000E+00
256  2.5500000000000E+00  0.0000000000000E+00  0.0000000000000E+00
257  2.5600000000000E+00  0.0000000000000E+00  0.0000000000000E+00
258  2.5700000000000E+00  0.0000000000000E+00  0.0000000000000E+00
259  2.5800000000000E+00  0.0000000000000E+00  0.0000000000000E+00
260  2.5900000000000E+00  0.0000000000000E+00  0.0000000000000E+00
261  2.6000000000000E+00  0.0000000000000E+00  0.0000000000000E+00
262  2.6100000000000E+00  0.0000000000000E+00  0.0000000000000E+00
263  2.6200000000000E+00  0.0000000000000E+00  0.0000000000000E+00
264  2.6300000000000E+00  0.0000000000000E+00  0.0000000000000E+00
265  2.6400000000000E+00  0.0000000000000E+00  0.0000000000000E+00
266  2.6500000000000E+00  0.0000000000000E+00  0.0000000000000E+00
267  2.6600000000000E+00  0.0000000000000E+00  0.0000000000000E+00
268  2.6700000000000E+00  0.0000000000000E+00  0.0000000000000E+00
269  2.6800000000000E+00  0.0000000000000E+00  0.0000000000000E+00
270  2.6900000000000E+00  0.0000000000000E+00  0.0000000000000E+00
271  2.7000000000000E+00  0.0000000000000E+00  0.0000000000000E+00
272  2.7100000000000E+00  0.0000000000000E+00  0.0000000000000E+00
273  2.7200000000000E+00  0.0000000000000E+00  0.0000000000000E+00
274  2.7300000000000E+00  0.0000000000000E+00  0.0000000000000E+00
275  2.7400000000000E+00  0.0000000000000E+00  0.0000000000000E+00
276  2.7500000000000E+00  0.0000000000000E+00  0.0000000000000E+00
277  2.7600000000000E+00  0.0000000000000E+00  0.0000000000000E+00
278  2.7700000000000E+00  0.0000000000000E+00  0.0000000000000E+00
279  2.7800000000000E+00  0.0000000000000E+00  0.0000000000000E+00
280  2.7900000000000E+00  0.0000000000000E+00  0.0000000000000E+00
281  2.8000000000000E+00  0.0000000000000E+00  0.0000000000000E+00
282  2.8100000000000E+00  0.0000000000000E+00  0.0000000000000E+00
283  2.8200000000000E+00  0.0000000000000E+00  0.0000000000000E+00
284  2.8300000000000E+00  0.0000000000000E+00  0.0000000000000E+00
285  2.8400000000000E+00  0.0000000000000E+00  0.0000000000000E+00
286  2.8500000000000E+00  0.0000000000000E+00  0.0000000000000E+00
287  2.8600000000000E+00  0.0000000000000E+00  0.0000000000000E+00
288  2.8700000000000E+00  0.0000000000000E+00  0.0000000000000E+00
289  2.8800000000000E+00  0.0000000000000E+00  0.0000000000000E+00
290  2.8900000000000E+00  0.0000000000000E+00  0.0000000000000E+00
291  2.9000000000000E+00  0.0000000000000E+00  0.0000000000000E+00
292  2.9100000000000E+00  0.0000000000000E+00  0.0000000000000E+00
293  2.9200000000000E+00  0.0000000000000E+00  0.0000000000000E+00
294  2.9300000000000E+00  0.0000000000000E+00  0.0000000000000E+00
295  2.9400000000000E+00  0.0000000000000E+00  0.0000000000000E+00
296  2.9500000000000E+00  0.0000000000000E+00  0.0000000000000E+00
297  2.9600000000000E+00  0.0000000000000E+00  0.0000000000000E+00
298  2.9700000000000E+00  0.0000000000000E+00  0.0000000000000E+00
299  2.9800000000000E+00  0.0000000000000E+00  0.0000000000000E+00
300  2.9900000000000E+00  0.0000000000000E+00  0.0000000000000E+00
301  3.0000000000000E+00  0.0000000000000E+00  0.0000000000000E+00
302  3.0100000000000E+00  0.0000000000000E+00  0.0000000000000E+00
303  3.0200000000000E+00  0.0000000000000E+00  0.0000000000000E+00
304  3.0300000000000E+00  0.0000000000000E+00  0.0000000000000E+00
305  3.0400000000000E+00  0.0000000000000E+00  0.0000000000000E+00
306  3.0500000000000E+00  0.0000000000000E+00  0.0000000000000E+00
307  3.0600000000000E+00  0.0000000000000E+00  0.0000000000000E+00
308  3.0700000000000E+00  0.0000000000000E+00  0.0000000000000E+00
309  3.0800000000000E+00  0.0000000000000E+00  0.0000000000000E+00
310  3.0900000000000E+00  0.0000000000000E+00  0.0000000000000E+00
311  3.1000000000000E+00  0.0000000000000E+00  0.0000000000000E+00
312  3.1100000000000E+00  0.0000000000000E+00  0.0000000000000E+00
313  3.1200000000000E+00  0.0000000000000E+00  0.0000000000000E+00
314  3.1300000000000E+00  0.0000000000000E+00  0.0000000000000E+00
315  3.1400000000000E+00  0.0000000000000E+00  0.0000000000000E+00
316  3.1500000000000E+00  0.0000000000000E+00  0.0000000000000E+00
317  3.1600000000000E+00  0.0000000000000E+00  0.0000000000000E+00
318  3.1700000000000E+00  0.0000000000000E+00  0.0000000000000E+00
319  3.1800000000000E+00  0.0000000000000E+00  0.0000000000000E+00
320  3.1900000000000E+00  0.0000000000000E+00  0.0000000000000E+00
321  3.2000000000000E+00  0.0000000000000E+00  0.0000000000000E+00
322  3.2100000000000E+00  0.0000000000000E+00  0.0000000000000E+00
323  3.2200000000000E+00  0.0000000000000E+00  0.0000000000000E+00
324  3.2300000000000E+00  0.0000000000000E+00  0.0000000000000E+00
325  3.2400000000000E+00  0.0000000000000E+00  0.0000000000000E+00
326  3.2500000000000E+00  0.0000000000000E+00  0.0000000000000E+00
327  3.2600000000000E+00  0.0000000000000E+00  0.0000000000000E+00
328  3.2700000000000E+00  0.0000000000000E+00  0.0000000000000E+00
329  3.2800000000000E+00  0.0000000000000E+00  0.0000000000000E+00
330  3.2900000000000E+00  0.0000000000000E+00  0.0000000000000E+00
331  3.3000000000000E+00  0.0000000000000E+00  0.0000000000000E+00
332  3.3100000000000E+00  0.0000000000000E+00  0.0000000000000E+00
333  3.3200000000000E+00  0.0000000000000E+00  0.0000000000000E+00
334  3.3300000000000E+00  0.0000000000000E+00  0.0000000000000E+00
335  3.3400000000000E+00  0.0000000000000E+00  0.0000000000000E+00
336  3.3500000000000E+00  0.0000000000000E+00  0.0000000000000E+00
337  3.3600000000000E+00  0.0000000000000E+00  0.0000000000000E+00
338  3.3700000000000E+00  0.0000000000000E+00  0.0000000000000E+00
339  3.3800000000000E+00  0.0000000000000E+00  0.0000000000000E+00
340  3.3900000000000E+00  0.0000000000000E+00  0.0000000000000E+00
341  3.4000000000000E+00  0.0000000000000E+00  0.0000000000000E+00
342  3.4100000000000E+00  0.0000000000000E+00  0.0000000000000E+00
343  3.4200000000000E+00  0.0000000000000E+00  0.0000000000000E+00
344  3.4300000000000E+00  0.0000000000000E+00  0.0000000000000E+00
345  3.4400000000000E+00  0.0000000000000E+00  0.0000000000000E+00
346  3.4500000000000E+00  0.0000000000000E+00  0.0000000000000E+00
347  3.4600000000000E+00  0.0000000000000E+00  0.0000000000000E+00
348  3.4700000000000E+00  0.0000000000000E+00  0.0000000000000E+00
349  3.4800000000000E+00  0.0000000000000E+00  0.0000000000000E+00
350  3.4900000000000E+00  0.0000000000000E+00  0.0000000000000E+00
351  3.5000000000000E+00  0.0000000000000E+00  0.0000000000000E+00
352  3.5100000000000E+00  0.0000000000000E+00  0.0000000000000E+00
353  3.5200000000000E+00  0.0000000000000E+00  0.0000000000000E+00
354  3.5300000000000E+00  0.0000000000000E+00  0.0000000000000E+00
355  3.5400000000000E+00  0.0000000000000E+00  0.0000000000000E+00
356  3.5500000000000E+00  0.0000000000000E+00  0.0000000000000E+00
357  3.5600000000000E+00  0.0000000000000E+00  0.0000000000000E+00
358  3.5700000000000E+00  0.0000000000000E+00  0.0000000000000E+00
359  3.5800000000000E+00  0.0000000000000E+00  0.0000000000000E+00
360  3.5900000000000E+00  0.0000000000000E+00  0.0000000000000E+00
361  3.6000000000000E+00  0.0000000000000E+00  0.0000000000000E+00
362  3.6100000000000E+00  0.0000000000000E+00  0.0000000000000E+00
363  3.6200000000000E+00  0.0000000000000E+00  0.0000000000000E+00
364  3.6300000000000E+00  0.0000000000000E+00  0.0000000000000E+00
365  3.6400000000000E+00  0.0000000000000E+00  0.0000000000000E+00
366  3.6500000000000E+00  0.0000000000000E+00  0.0000000000000E+00
367  3.6600000000000E+00  0.0000000000000E+00  0.0000000000000E+00
368  3.6700000000000E+00  0.0000000000000E+00  0.0000000000000E+00
369  3.6800000000000E+00  0.0000000000000E+00  0.0000000000000E+00
370  3.6900000000000E+00  0.0000000000000E+00  0.0000000000000E+00
371  3.7000000000000E+00  0.0000000000000E+00  0.0000000000000E+00
372  3.7100000000000E+00  0.0000000000000E+00  0.0000000000000E+00
373  3.7200000000000E+00  0.0000000000000E+00  0.0000000000000E+00
374  3.7300000000000E+00  0.0000000000000E+00  0.0000000000000E+00
375  3.7400000000000E+00  0.0000000000000E+00  0.0000000000000E+00
376  3.7500000000000E+00  0.0000000000000E+00  0.0000000000000E+00
377  3.7600000000000E+00  0.0000000000000E+00  0.0000000000000E+00
378  3.7700000000000E+00  0.0000000000000E+00  0.0000000000000E+00
379  3.7800000000000E+00  0.0000000000000E+00  0.0000000000000E+00
380  3.7900000000000E+00  0.0000000000000E+00  0.0000000000000E+00
381  3.8000000000000E+00  0.0000000000000E+00  0.0000000000000E+00
382  3.8100000000000E+00  0.0000000000000E+00  0.0000000000000E+00
383  3.8200000000000E+00  0.0000000000000E+00  0.0000000000000E+00
384  3.8300000000000E+00  0.0000000000000E+00  0.0000000000000E+00
385  3.8400000000000E+00  0.0000000000000E+00  0.0000000000000E+00
386  3.8500000000000E+00  0.0000000000000E+00  0.0000000000000E+00
387  3.8600000000000E+00  0.0000000000000E+00  0.0000000000000E+00
388  3.8700000000000E+00  0.0000000000000E+00  0.0000000000000E+00
389  3.8800000000000E+00  0.0000000000000E+00  0.0000000000000E+00
390  3.8900000000000E+00  0.0000000000000E+00  0.0000000000000E+00
391  3.9000000000000E+00  0.0000000000000E+00  0.0000000000000E+00
392  3.9100000000000E+00  0.0000000000000E+00  0.0000000000000E+00
393  3.9200000000000E+00  0.0000000000000E+00  0.0000000000000E+00
394  3.9300000000000E+00  0.0000000000000E+00  0.0000000000000E+00
395  3.9400000000000E+00  0.0000000000000E+00  0.0000000000000E+00
396  3.9500000000000E+00  0.0000000000000E+00  0.0000000000000E+00
397  3.9600000000000E+00  0.0000000000000E+00  0.0000000000000E+00
398  3.9700000000000E+00  0.0000000000000E+00  0.0000000000000E+00
399  3.9800000000000E+00  0.0000000000000E+00  0.0000000000000E+00
400  3.9900000000000E+00  0.0000000000000E+00  0.0000000000000E+00
401  4.0000000000000E+00  0.0000000000000E+00  0.0000000000000E+00
402  4.0100000000000E+00  0.0000000000000E+00  0.0000000000000E+00
403  4.0200000000000E+00  0.0000000000000E+00  0.0000000000000E+00
404  4.0300000000000E+00  0.0000000000000E+00  0.0000000000000E+00
405  4.0400000000000E+00  0.0000000000000E+00  0.0000000000000E+00
406  4.0500000000000E+00  0.0000000000000E+00  0.0000000000000E+00
407  4.0600000000000E+00  0.0000000000000E+00  0.0000000000000E+00
408  4.0700000000000E+00  0.0000000000000E+00  0.0000000000000E+00
409  4.0800000000000E+00  0.0000000000000E+00  0.0000000000000E+00
410  4.0900000000000E+00  0.0000000000000E+00  0.0000000000000E+00
411  4.1000000000000E+00  0.0000000000000E+00  0.0000000000000E+00
412  4.1100000000000E+00  0.0000000000000E+00  0.0000000000000E+00
413  4.1200000000000E+00  0.0000000000000E+00  0.0000000000000E+00
414  4.1300000000000E+00  0.0000000000000E+00  0.0000000000000E+00
415  4.1400000000000E+00  0.0000000000000E+00  0.0000000000000E+00
416  4.1500000000000E+00  0.0000000000000E+00  0.0000000000000E+00
417  4.1600000000000E+00  0.0000000000000E+00  0.0000000000000E+00
418  4.1700000000000E+00  0.0000000000000E+00  0.0000000000000E+00
419  4.1800000000000E+00  0.0000000000000E+00  0.0000000000000E+00
420  4.1900000000000E+00  0.0000000000000E+00  0.0000000000000E+00
421  4.2000000000000E+00  0.0000000000000E+00  0.0000000000000E+00
422  4.2100000000000E+00  0.0000000000000E+00  0.0000000000000E+00
423  4.2200000000000E+00  0.0000000000000E+00  0.0000000000000E+00
424  4.2300000000000E+00  0.0000000000000E+00  0.0000000000000E+00
425  4.2400000000000E+00  0.0000000000000E+00  0.0000000000000E+00
426  4.2500000000000E+00  0.0000000000000E+00  0.0000000000000E+00
427  4.2600000000000E+00  0.0000000000000E+00  0.0000000000000E+00
428  4.2700000000000E+00  0.0000000000000E+00  0.0000000000000E+00
429  4.2800000000000E+00  0.0000000000000E+00  0.0000000000000E+00
430  4.2900000000000E+00  0.0000000000000E+00  0.0000000000000E+00
431  4.3000000000000E+00  0.0000000000000E+00  0.0000000000000E+00
432  4.3100000000000E+00  0.0000000000000E+00  0.0000000000000E+00
433  4.3200000000000E+00  0.0000000000000E+00  0.0000000000000E+00
434  4.3300000000000E+00  0.0000000000000E+00  0.0000000000000E+00
435  4.3400000000000E+00  0.0000000000000E+00  0.0000000000000E+00
436  4.3500000000000E+00  0.0000000000000E+00  0.0000000000000E+00
437  4.3600000000000E+00  0.0000000000000E+00  0.0000000000000E+00
438  4.3700000000000E+00  0.0000000000000E+00  0.0000000000000E+00
439  4.3800000000000E+00  0.0000000000000E+00  0.0000000000000E+00
440  4.3900000000000E+00  0.0000000000000E+00  0.0000000000000E+00
441  4.4000000000000E+00  0.0000000000000E+00  0.0000000000000E+00
442  4.4100000000000E+00  0.0000000000000E+00  0.0000000000000E+00
443  4.4200000000000E+00  0.0000000000000E+00  0.0000000000000E+00