In    ONCVPSP-3.2.3.1  r_core=   2.10853   2.37566   1.87143
49.0000     13.0000      170510    zatom,zion,pspd
8      11   2     4   600     0    pspcod,pspxc,lmax,lloc,mmax,r2well
5.99000000  5.00000000  0.00000000    rchrg fchrg qchrg
2     2     2     0     0    nproj
1     1           extension_switch
0                         1.2954318711292E+01  1.9277128443095E+00
1  0.0000000000000E+00 -1.9897916647693E-10  2.0077289830667E-10
2  1.0000000000000E-02  5.9081042351110E-02 -4.0730854536254E-02
3  2.0000000000000E-02  1.1788228035358E-01 -8.1186462044011E-02
4  3.0000000000000E-02  1.7612552538865E-01 -1.2109317140320E-01
5  4.0000000000000E-02  2.3353581110076E-01 -1.6018051415561E-01
6  5.0000000000000E-02  2.8984298158794E-01 -1.9818277299923E-01
7  6.0000000000000E-02  3.4478325220367E-01 -2.3484052302071E-01
8  7.0000000000000E-02  3.9810073407446E-01 -2.6990213681472E-01
9  8.0000000000000E-02  4.4954891363657E-01 -3.0312524483967E-01
10  9.0000000000000E-02  4.9889207874199E-01 -3.3427814260833E-01
11  1.0000000000000E-01  5.4590668317721E-01 -3.6314113660769E-01
12  1.1000000000000E-01  5.9038264177689E-01 -3.8950782118397E-01
13  1.2000000000000E-01  6.3212454869644E-01 -4.1318627901365E-01
14  1.3000000000000E-01  6.7095281183086E-01 -4.3400019820816E-01
15  1.4000000000000E-01  7.0670469682971E-01 -4.5178989956602E-01
16  1.5000000000000E-01  7.3923527465792E-01 -4.6641326798963E-01
17  1.6000000000000E-01  7.6841826718558E-01 -4.7774658262126E-01
18  1.7000000000000E-01  7.9414678585559E-01 -4.8568524082217E-01
19  1.8000000000000E-01  8.1633395907209E-01 -4.9014437171661E-01
20  1.9000000000000E-01  8.3491344457210E-01 -4.9105933564547E-01
21  2.0000000000000E-01  8.4983982368471E-01 -4.8838610651969E-01
22  2.1000000000000E-01  8.6108887504313E-01 -4.8210153472753E-01
23  2.2000000000000E-01  8.6865772599102E-01 -4.7220348892871E-01
24  2.3000000000000E-01  8.7256488061272E-01 -4.5871087575882E-01
25  2.4000000000000E-01  8.7285012401301E-01 -4.4166353716545E-01
26  2.5000000000000E-01  8.6957430317292E-01 -4.2112202579949E-01
27  2.6000000000000E-01  8.6281898540903E-01 -3.9716725958657E-01
28  2.7000000000000E-01  8.5268599616167E-01 -3.6990005730180E-01
29  2.8000000000000E-01  8.3929683852850E-01 -3.3944055766087E-01
30  2.9000000000000E-01  8.2279199763926E-01 -3.0592752511878E-01
31  3.0000000000000E-01  8.0333013363338E-01 -2.6951754623036E-01
32  3.1000000000000E-01  7.8108716764796E-01 -2.3038412106980E-01
33  3.2000000000000E-01  7.5625526584866E-01 -1.8871665482680E-01
34  3.3000000000000E-01  7.2904172713419E-01 -1.4471935529000E-01
35  3.4000000000000E-01  6.9966778071468E-01 -9.8610042491733E-02
36  3.5000000000000E-01  6.6836730030045E-01 -5.0618877317282E-02
37  3.6000000000000E-01  6.3538544213867E-01 -9.8701637433995E-04
38  3.7000000000000E-01  6.0097721459705E-01  5.0034799129090E-02
39  3.8000000000000E-01  5.6540598741330E-01  1.0218771234053E-01
40  3.9000000000000E-01  5.2894194910495E-01  1.5520626903056E-01
41  4.0000000000000E-01  4.9186052136232E-01  2.0881997633373E-01
42  4.1000000000000E-01  4.5444073952672E-01  2.6275489285816E-01
43  4.2000000000000E-01  4.1696360848456E-01  3.1673524084497E-01
44  4.3000000000000E-01  3.7971044348331E-01  3.7048503089776E-01
45  4.4000000000000E-01  3.4296120549693E-01  4.2372968969645E-01
46  4.5000000000000E-01  3.0699284083444E-01  4.7619768105987E-01
47  4.6000000000000E-01  2.7207763469563E-01  5.2762211072802E-01
48  4.7000000000000E-01  2.3848158833186E-01  5.7774230529845E-01
49  4.8000000000000E-01  2.0646282936665E-01  6.2630535587177E-01
50  4.9000000000000E-01  1.7627006467187E-01  6.7306761713877E-01
51  5.0000000000000E-01  1.4814108498008E-01  7.1779615287497E-01
52  5.1000000000000E-01  1.2230133014304E-01  7.6027011909685E-01
53  5.2000000000000E-01  9.8962523622766E-02  8.0028207647687E-01
54  5.3000000000000E-01  7.8321384424366E-02  8.3763922400863E-01
55  5.4000000000000E-01  6.0558424253415E-02  8.7216454635841E-01
56  5.5000000000000E-01  4.5836837204802E-02  9.0369786783253E-01
57  5.6000000000000E-01  3.4301488768633E-02  9.3209680642755E-01
58  5.7000000000000E-01  2.6078010374836E-02  9.5723762201102E-01
59  5.8000000000000E-01  2.1272005092520E-02  9.7901595330062E-01
60  5.9000000000000E-01  1.9968369460395E-02  9.9734743896389E-01
61  6.0000000000000E-01  2.2230735748514E-02  1.0121682188495E+00
62  6.1000000000000E-01  2.8101038249421E-02  1.0234353120751E+00
63  6.2000000000000E-01  3.7599206467398E-02  1.0311268694363E+00
64  6.3000000000000E-01  5.0722987323448E-02  1.0352422983611E+00
65  6.4000000000000E-01  6.7447897730514E-02  1.0358022594053E+00
66  6.5000000000000E-01  8.7727308111216E-02  1.0328485340691E+00
67  6.6000000000000E-01  1.1149265664689E-01  1.0264437645061E+00
68  6.7000000000000E-01  1.3865379325985E-01  1.0166710664807E+00
69  6.8000000000000E-01  1.6909945154201E-01  1.0036335177191E+00
70  6.9000000000000E-01  2.0269784606639E-01  9.8745352457382E-01
71  7.0000000000000E-01  2.3929739175237E-01  9.6827207068014E-01
72  7.1000000000000E-01  2.7872754120495E-01  9.4624785202868E-01
73  7.2000000000000E-01  3.2079973522072E-01  9.2155630359331E-01
74  7.3000000000000E-01  3.6530846095319E-01  8.9438852334379E-01
75  7.4000000000000E-01  4.1203241155886E-01  8.6495010012822E-01
76  7.5000000000000E-01  4.6073574051213E-01  8.3345985252705E-01
77  7.6000000000000E-01  5.1116940318163E-01  8.0014848635688E-01
78  7.7000000000000E-01  5.6307257770874E-01  7.6525717903238E-01
79  7.8000000000000E-01  6.1617415672648E-01  7.2903609947369E-01
80  7.9000000000000E-01  6.7019430100349E-01  6.9174287267389E-01
81  8.0000000000000E-01  7.2484604569934E-01  6.5364099841196E-01
82  8.1000000000000E-01  7.7983694957568E-01  6.1499823390785E-01
83  8.2000000000000E-01  8.3487077722564E-01  5.7608495046683E-01
84  8.3000000000000E-01  8.8964920416309E-01  5.3717247434705E-01
85  8.4000000000000E-01  9.4387353445643E-01  4.9853142220599E-01
86  8.5000000000000E-01  9.9724642049918E-01  4.6043004153733E-01
87  8.6000000000000E-01  1.0494735744824E+00  4.2313256649848E-01
88  8.7000000000000E-01  1.1002654611737E+00  3.8689759945051E-01
89  8.8000000000000E-01  1.1493389617137E+00  3.5197652838667E-01
90  8.9000000000000E-01  1.1964189983106E+00  3.1861199021374E-01
91  9.0000000000000E-01  1.2412401099518E+00  2.8703638957269E-01
92  9.1000000000000E-01  1.2835479695512E+00  2.5747048254392E-01
93  9.2000000000000E-01  1.3231008333128E+00  2.3012203417856E-01
94  9.3000000000000E-01  1.3596709135130E+00  2.0518455833428E-01
95  9.4000000000000E-01  1.3930456663861E+00  1.8283614777391E-01
96  9.5000000000000E-01  1.4230289873291E+00  1.6323840191148E-01
97  9.6000000000000E-01  1.4494423062287E+00  1.4653545896644E-01
98  9.7000000000000E-01  1.4721255763447E+00  1.3285313861861E-01
99  9.8000000000000E-01  1.4909381508681E+00  1.2229820053547E-01
100  9.9000000000000E-01  1.5057595419713E+00  1.1495772341309E-01
101  1.0000000000000E+00  1.5164900579329E+00  1.1089860837339E-01
102  1.0100000000000E+00  1.5230513146945E+00  1.1016720975686E-01
103  1.0200000000000E+00  1.5253866190077E+00  1.1278909552336E-01
104  1.0300000000000E+00  1.5234612211529E+00  1.1876893862558E-01
105  1.0400000000000E+00  1.5172624360550E+00  1.2809053985619E-01
106  1.0500000000000E+00  1.5067996324618E+00  1.4071698181084E-01
107  1.0600000000000E+00  1.4921040906716E+00  1.5659091277609E-01
108  1.0700000000000E+00  1.4732287301944E+00  1.7563495844043E-01
109  1.0800000000000E+00  1.4502477095143E+00  1.9775225853873E-01
110  1.0900000000000E+00  1.4232559009764E+00  2.2282712468149E-01
111  1.1000000000000E+00  1.3923682445948E+00  2.5072581484724E-01
112  1.1100000000000E+00  1.3577189853358E+00  2.8129741926503E-01
113  1.1200000000000E+00  1.3194607992356E+00  3.1437485161638E-01
114  1.1300000000000E+00  1.2777638143562E+00  3.4977593885811E-01
115  1.1400000000000E+00  1.2328145332967E+00  3.8730460226905E-01
116  1.1500000000000E+00  1.1848146644906E+00  4.2675212183081E-01
117  1.1600000000000E+00  1.1339798702485E+00  4.6789847535260E-01
118  1.1700000000000E+00  1.0805384399059E+00  5.1051374337914E-01
119  1.1800000000000E+00  1.0247298969144E+00  5.5435957047603E-01
120  1.1900000000000E+00  9.6680354909657E-01  5.9919067313594E-01
121  1.2000000000000E+00  9.0701699168670E-01  6.4475638419831E-01
122  1.2100000000000E+00  8.4563457297622E-01  6.9080222352531E-01
123  1.2200000000000E+00  7.8292583256661E-01  7.3707148451861E-01
124  1.2300000000000E+00  7.1916392245871E-01  7.8330682591296E-01
125  1.2400000000000E+00  6.5462402116308E-01  8.2925185837498E-01
126  1.2500000000000E+00  5.8958175104781E-01  8.7465271544421E-01
127  1.2600000000000E+00  5.2431160911606E-01  9.1925959844681E-01
128  1.2700000000000E+00  4.5908542112063E-01  9.6282828537578E-01
129  1.2800000000000E+00  3.9417082881348E-01  1.0051215938710E+00
130  1.2900000000000E+00  3.2982981992046E-01  1.0459107887122E+00
131  1.3000000000000E+00  2.6631730976890E-01  1.0849769250017E+00
132  1.3100000000000E+00  2.0387978344943E-01  1.1221121182677E+00
133  1.3200000000000E+00  1.4275400687119E-01  1.1571207333334E+00
134  1.3300000000000E+00  8.3165814040266E-02  1.1898204849322E+00
135  1.3400000000000E+00  2.5328978212977E-02  1.2200434426988E+00
136  1.3500000000000E+00 -3.0555826689287E-02  1.2476369345767E+00
137  1.3600000000000E+00 -8.4301969071103E-02  1.2724643438048E+00
138  1.3700000000000E+00 -1.3573770075557E-01  1.2944057936153E+00
139  1.3800000000000E+00 -1.8470689287400E-01  1.3133587170119E+00
140  1.3900000000000E+00 -2.3106966241867E-01  1.3292383080876E+00
141  1.4000000000000E+00 -2.7470288605152E-01  1.3419778521451E+00
142  1.4100000000000E+00 -3.1550060041059E-01  1.3515289346765E+00
143  1.4200000000000E+00 -3.5337428596242E-01  1.3578615269468E+00
144  1.4300000000000E+00 -3.8825303522042E-01  1.3609639499073E+00
145  1.4400000000000E+00 -4.2008360533348E-01  1.3608427172834E+00
146  1.4500000000000E+00 -4.4883035529672E-01  1.3575222589741E+00
147  1.4600000000000E+00 -4.7447507164669E-01  1.3510445296169E+00
148  1.4700000000000E+00 -4.9701668279544E-01  1.3414685033586E+00
149  1.4800000000000E+00 -5.1647086783137E-01  1.3288695617086E+00
150  1.4900000000000E+00 -5.3286956229518E-01  1.3133387779252E+00
151  1.5000000000000E+00 -5.4626036629572E-01  1.2949821043392E+00
152  1.5100000000000E+00 -5.5670586093638E-01  1.2739194695610E+00
153  1.5200000000000E+00 -5.6428283760566E-01  1.2502837911738E+00
154  1.5300000000000E+00 -5.6908144891330E-01  1.2242199136236E+00
155  1.5400000000000E+00 -5.7120428574564E-01  1.1958834768638E+00
156  1.5500000000000E+00 -5.7076539042605E-01  1.1654397265908E+00
157  1.5600000000000E+00 -5.6788921179340E-01  1.1330622729419E+00
158  1.5700000000000E+00 -5.6270951184181E-01  1.0989318081184E+00
159  1.5800000000000E+00 -5.5536823133491E-01  1.0632347912842E+00
160  1.5900000000000E+00 -5.4601432365524E-01  1.0261621108367E+00
161  1.6000000000000E+00 -5.3480256507261E-01  9.8790773296482E-01
162  1.6100000000000E+00 -5.2189235073103E-01  9.4866734668798E-01
163  1.6200000000000E+00 -5.0744648431812E-01  9.0863701379343E-01
164  1.6300000000000E+00 -4.9162997121972E-01  8.6801183445064E-01
165  1.6400000000000E+00 -4.7460882193634E-01  8.2698463541004E-01
166  1.6500000000000E+00 -4.5654887601772E-01  7.8574469065291E-01
167  1.6600000000000E+00 -4.3761465429238E-01  7.4447649192401E-01
168  1.6700000000000E+00 -4.1796823898624E-01  7.0335853202418E-01
169  1.6800000000000E+00 -3.9776822174694E-01  6.6256224930844E-01
170  1.6900000000000E+00 -3.7716866265874E-01  6.2225089318499E-01
171  1.7000000000000E+00 -3.5631809040737E-01  5.8257836533039E-01
172  1.7100000000000E+00 -3.3535869866105E-01  5.4368873417616E-01
173  1.7200000000000E+00 -3.1442558292635E-01  5.0571574284180E-01
174  1.7300000000000E+00 -2.9364610465103E-01  4.6878243497638E-01
175  1.7400000000000E+00 -2.7313937186107E-01  4.3300105863375E-01
176  1.7500000000000E+00 -2.5301569248126E-01  3.9847254010508E-01
177  1.7600000000000E+00 -2.3337610790616E-01  3.6528601101520E-01
178  1.7700000000000E+00 -2.1431204493717E-01  3.3351859225809E-01
179  1.7800000000000E+00 -1.9590504068504E-01  3.0323521727694E-01
180  1.7900000000000E+00 -1.7822656021293E-01  2.7448855912459E-01
181  1.8000000000000E+00 -1.6133790014028E-01  2.4731905822617E-01
182  1.8100000000000E+00 -1.4529018032068E-01  2.2175504496503E-01
183  1.8200000000000E+00 -1.3012442026126E-01  1.9781295668627E-01
184  1.8300000000000E+00 -1.1587169769171E-01  1.7549764500526E-01
185  1.8400000000000E+00 -1.0255338920242E-01  1.5480277281225E-01
186  1.8500000000000E+00 -9.0181483532158E-02  1.3571129036746E-01
187  1.8600000000000E+00 -7.8758972106591E-02  1.1819599481803E-01
188  1.8700000000000E+00 -6.8280300883920E-02  1.0222015567858E-01
189  1.8800000000000E+00 -5.8731891238667E-02  8.7738213816965E-02
190  1.8900000000000E+00 -5.0092711416984E-02  7.4696533952645E-02
191  1.9000000000000E+00 -4.2334903670354E-02  6.3034215309971E-02
192  1.9100000000000E+00 -3.5424452664096E-02  5.2683944833282E-02
193  1.9200000000000E+00 -2.9321893075316E-02  4.3572890001918E-02
194  1.9300000000000E+00 -2.3983048166128E-02  3.5623622125448E-02
195  1.9400000000000E+00 -1.9359791346962E-02  2.8755061150604E-02
196  1.9500000000000E+00 -1.5400825335602E-02  2.2883435527238E-02
197  1.9600000000000E+00 -1.2052470561935E-02  1.7923248267483E-02
198  1.9700000000000E+00 -9.2594546766320E-03  1.3788239383771E-02
199  1.9800000000000E+00 -6.9656991035796E-03  1.0392340749779E-02
200  1.9900000000000E+00 -5.1150908308283E-03  7.6506097103459E-03
201  2.0000000000000E+00 -3.6522366756632E-03  5.4801385613260E-03
202  2.0100000000000E+00 -2.5231922135824E-03  3.8009311469151E-03
203  2.0200000000000E+00 -1.6761538573291E-03  2.5367335811187E-03
204  2.0300000000000E+00 -1.0621209021030E-03  1.6158269115833E-03
205  2.0400000000000E+00 -6.3553087082981E-04  9.7177907608875E-04
206  2.0500000000000E+00 -3.5472576807655E-04  5.4403106122712E-04
207  2.0600000000000E+00 -1.8250896843632E-04  2.7855730517383E-04
208  2.0700000000000E+00 -8.6695155680253E-05  1.2851300481176E-04
209  2.0800000000000E+00 -4.0617099424262E-05  5.4590572327926E-05
210  2.0900000000000E+00 -2.3297584449591E-05  2.5569776046724E-05
211  2.1000000000000E+00 -1.8757550507486E-05  1.7876966423564E-05
212  2.1100000000000E+00 -1.6180508708494E-05  1.5547265817364E-05
213  2.1200000000000E+00 -9.9169516659302E-06  9.8722042408904E-06
214  2.1300000000000E+00 -2.4689981170158E-06  2.5433738251405E-06
215  2.1400000000000E+00  1.5584680222402E-06 -1.5292044384525E-06
216  2.1500000000000E+00  1.5731302806563E-06 -1.5612833077685E-06
217  2.1600000000000E+00 -3.1885225852895E-08  2.8236897338160E-08
218  2.1700000000000E+00 -3.5603669362973E-07  3.1350607833448E-07
219  2.1800000000000E+00 -1.9738453765734E-07  1.7299901870362E-07
220  2.1900000000000E+00  2.8195644074052E-08 -2.6990703243105E-08
221  2.2000000000000E+00  4.6157026076902E-08 -4.4184505597884E-08
222  2.2100000000000E+00  8.4401887059090E-09 -8.0794972471170E-09
223  2.2200000000000E+00  0.0000000000000E+00  0.0000000000000E+00
224  2.2300000000000E+00  0.0000000000000E+00  0.0000000000000E+00
225  2.2400000000000E+00  0.0000000000000E+00  0.0000000000000E+00
226  2.2500000000000E+00  0.0000000000000E+00  0.0000000000000E+00
227  2.2600000000000E+00  0.0000000000000E+00  0.0000000000000E+00
228  2.2700000000000E+00  0.0000000000000E+00  0.0000000000000E+00
229  2.2800000000000E+00  0.0000000000000E+00  0.0000000000000E+00
230  2.2900000000000E+00  0.0000000000000E+00  0.0000000000000E+00
231  2.3000000000000E+00  0.0000000000000E+00  0.0000000000000E+00
232  2.3100000000000E+00  0.0000000000000E+00  0.0000000000000E+00
233  2.3200000000000E+00  0.0000000000000E+00  0.0000000000000E+00
234  2.3300000000000E+00  0.0000000000000E+00  0.0000000000000E+00
235  2.3400000000000E+00  0.0000000000000E+00  0.0000000000000E+00
236  2.3500000000000E+00  0.0000000000000E+00  0.0000000000000E+00
237  2.3600000000000E+00  0.0000000000000E+00  0.0000000000000E+00
238  2.3700000000000E+00  0.0000000000000E+00  0.0000000000000E+00
239  2.3800000000000E+00  0.0000000000000E+00  0.0000000000000E+00
240  2.3900000000000E+00  0.0000000000000E+00  0.0000000000000E+00
241  2.4000000000000E+00  0.0000000000000E+00  0.0000000000000E+00
242  2.4100000000000E+00  0.0000000000000E+00  0.0000000000000E+00
243  2.4200000000000E+00  0.0000000000000E+00  0.0000000000000E+00
244  2.4300000000000E+00  0.0000000000000E+00  0.0000000000000E+00
245  2.4400000000000E+00  0.0000000000000E+00  0.0000000000000E+00
246  2.4500000000000E+00  0.0000000000000E+00  0.0000000000000E+00
247  2.4600000000000E+00  0.0000000000000E+00  0.0000000000000E+00
248  2.4700000000000E+00  0.0000000000000E+00  0.0000000000000E+00
249  2.4800000000000E+00  0.0000000000000E+00  0.0000000000000E+00
250  2.4900000000000E+00  0.0000000000000E+00  0.0000000000000E+00
251  2.5000000000000E+00  0.0000000000000E+00  0.0000000000000E+00
252  2.5100000000000E+00  0.0000000000000E+00  0.0000000000000E+00
253  2.5200000000000E+00  0.0000000000000E+00  0.0000000000000E+00
254  2.5300000000000E+00  0.0000000000000E+00  0.0000000000000E+00
255  2.5400000000000E+00  0.0000000000000E+00  0.0000000000000E+00
256  2.5500000000000E+00  0.0000000000000E+00  0.0000000000000E+00
257  2.5600000000000E+00  0.0000000000000E+00  0.0000000000000E+00
258  2.5700000000000E+00  0.0000000000000E+00  0.0000000000000E+00
259  2.5800000000000E+00  0.0000000000000E+00  0.0000000000000E+00
260  2.5900000000000E+00  0.0000000000000E+00  0.0000000000000E+00
261  2.6000000000000E+00  0.0000000000000E+00  0.0000000000000E+00
262  2.6100000000000E+00  0.0000000000000E+00  0.0000000000000E+00
263  2.6200000000000E+00  0.0000000000000E+00  0.0000000000000E+00
264  2.6300000000000E+00  0.0000000000000E+00  0.0000000000000E+00
265  2.6400000000000E+00  0.0000000000000E+00  0.0000000000000E+00
266  2.6500000000000E+00  0.0000000000000E+00  0.0000000000000E+00
267  2.6600000000000E+00  0.0000000000000E+00  0.0000000000000E+00
268  2.6700000000000E+00  0.0000000000000E+00  0.0000000000000E+00
269  2.6800000000000E+00  0.0000000000000E+00  0.0000000000000E+00
270  2.6900000000000E+00  0.0000000000000E+00  0.0000000000000E+00
271  2.7000000000000E+00  0.0000000000000E+00  0.0000000000000E+00
272  2.7100000000000E+00  0.0000000000000E+00  0.0000000000000E+00
273  2.7200000000000E+00  0.0000000000000E+00  0.0000000000000E+00
274  2.7300000000000E+00  0.0000000000000E+00  0.0000000000000E+00
275  2.7400000000000E+00  0.0000000000000E+00  0.0000000000000E+00
276  2.7500000000000E+00  0.0000000000000E+00  0.0000000000000E+00
277  2.7600000000000E+00  0.0000000000000E+00  0.0000000000000E+00
278  2.7700000000000E+00  0.0000000000000E+00  0.0000000000000E+00
279  2.7800000000000E+00  0.0000000000000E+00  0.0000000000000E+00
280  2.7900000000000E+00  0.0000000000000E+00  0.0000000000000E+00
281  2.8000000000000E+00  0.0000000000000E+00  0.0000000000000E+00
282  2.8100000000000E+00  0.0000000000000E+00  0.0000000000000E+00
283  2.8200000000000E+00  0.0000000000000E+00  0.0000000000000E+00
284  2.8300000000000E+00  0.0000000000000E+00  0.0000000000000E+00
285  2.8400000000000E+00  0.0000000000000E+00  0.0000000000000E+00
286  2.8500000000000E+00  0.0000000000000E+00  0.0000000000000E+00
287  2.8600000000000E+00  0.0000000000000E+00  0.0000000000000E+00
288  2.8700000000000E+00  0.0000000000000E+00  0.0000000000000E+00
289  2.8800000000000E+00  0.0000000000000E+00  0.0000000000000E+00
290  2.8900000000000E+00  0.0000000000000E+00  0.0000000000000E+00
291  2.9000000000000E+00  0.0000000000000E+00  0.0000000000000E+00
292  2.9100000000000E+00  0.0000000000000E+00  0.0000000000000E+00
293  2.9200000000000E+00  0.0000000000000E+00  0.0000000000000E+00
294  2.9300000000000E+00  0.0000000000000E+00  0.0000000000000E+00
295  2.9400000000000E+00  0.0000000000000E+00  0.0000000000000E+00
296  2.9500000000000E+00  0.0000000000000E+00  0.0000000000000E+00
297  2.9600000000000E+00  0.0000000000000E+00  0.0000000000000E+00
298  2.9700000000000E+00  0.0000000000000E+00  0.0000000000000E+00
299  2.9800000000000E+00  0.0000000000000E+00  0.0000000000000E+00
300  2.9900000000000E+00  0.0000000000000E+00  0.0000000000000E+00
301  3.0000000000000E+00  0.0000000000000E+00  0.0000000000000E+00
302  3.0100000000000E+00  0.0000000000000E+00  0.0000000000000E+00
303  3.0200000000000E+00  0.0000000000000E+00  0.0000000000000E+00
304  3.0300000000000E+00  0.0000000000000E+00  0.0000000000000E+00
305  3.0400000000000E+00  0.0000000000000E+00  0.0000000000000E+00
306  3.0500000000000E+00  0.0000000000000E+00  0.0000000000000E+00
307  3.0600000000000E+00  0.0000000000000E+00  0.0000000000000E+00
308  3.0700000000000E+00  0.0000000000000E+00  0.0000000000000E+00
309  3.0800000000000E+00  0.0000000000000E+00  0.0000000000000E+00
310  3.0900000000000E+00  0.0000000000000E+00  0.0000000000000E+00
311  3.1000000000000E+00  0.0000000000000E+00  0.0000000000000E+00
312  3.1100000000000E+00  0.0000000000000E+00  0.0000000000000E+00
313  3.1200000000000E+00  0.0000000000000E+00  0.0000000000000E+00
314  3.1300000000000E+00  0.0000000000000E+00  0.0000000000000E+00
315  3.1400000000000E+00  0.0000000000000E+00  0.0000000000000E+00
316  3.1500000000000E+00  0.0000000000000E+00  0.0000000000000E+00
317  3.1600000000000E+00  0.0000000000000E+00  0.0000000000000E+00
318  3.1700000000000E+00  0.0000000000000E+00  0.0000000000000E+00
319  3.1800000000000E+00  0.0000000000000E+00  0.0000000000000E+00
320  3.1900000000000E+00  0.0000000000000E+00  0.0000000000000E+00
321  3.2000000000000E+00  0.0000000000000E+00  0.0000000000000E+00
322  3.2100000000000E+00  0.0000000000000E+00  0.0000000000000E+00
323  3.2200000000000E+00  0.0000000000000E+00  0.0000000000000E+00
324  3.2300000000000E+00  0.0000000000000E+00  0.0000000000000E+00
325  3.2400000000000E+00  0.0000000000000E+00  0.0000000000000E+00
326  3.2500000000000E+00  0.0000000000000E+00  0.0000000000000E+00
327  3.2600000000000E+00  0.0000000000000E+00  0.0000000000000E+00
328  3.2700000000000E+00  0.0000000000000E+00  0.0000000000000E+00
329  3.2800000000000E+00  0.0000000000000E+00  0.0000000000000E+00
330  3.2900000000000E+00  0.0000000000000E+00  0.0000000000000E+00
331  3.3000000000000E+00  0.0000000000000E+00  0.0000000000000E+00
332  3.3100000000000E+00  0.0000000000000E+00  0.0000000000000E+00
333  3.3200000000000E+00  0.0000000000000E+00  0.0000000000000E+00
334  3.3300000000000E+00  0.0000000000000E+00  0.0000000000000E+00
335  3.3400000000000E+00  0.0000000000000E+00  0.0000000000000E+00
336  3.3500000000000E+00  0.0000000000000E+00  0.0000000000000E+00
337  3.3600000000000E+00  0.0000000000000E+00  0.0000000000000E+00
338  3.3700000000000E+00  0.0000000000000E+00  0.0000000000000E+00
339  3.3800000000000E+00  0.0000000000000E+00  0.0000000000000E+00
340  3.3900000000000E+00  0.0000000000000E+00  0.0000000000000E+00
341  3.4000000000000E+00  0.0000000000000E+00  0.0000000000000E+00
342  3.4100000000000E+00  0.0000000000000E+00  0.0000000000000E+00
343  3.4200000000000E+00  0.0000000000000E+00  0.0000000000000E+00
344  3.4300000000000E+00  0.0000000000000E+00  0.0000000000000E+00
345  3.4400000000000E+00  0.0000000000000E+00  0.0000000000000E+00
346  3.4500000000000E+00  0.0000000000000E+00  0.0000000000000E+00
347  3.4600000000000E+00  0.0000000000000E+00  0.0000000000000E+00
348  3.4700000000000E+00  0.0000000000000E+00  0.0000000000000E+00
349  3.4800000000000E+00  0.0000000000000E+00  0.0000000000000E+00
350  3.4900000000000E+00  0.0000000000000E+00  0.0000000000000E+00
351  3.5000000000000E+00  0.0000000000000E+00  0.0000000000000E+00
352  3.5100000000000E+00  0.0000000000000E+00  0.0000000000000E+00
353  3.5200000000000E+00  0.0000000000000E+00  0.0000000000000E+00
354  3.5300000000000E+00  0.0000000000000E+00  0.0000000000000E+00
355  3.5400000000000E+00  0.0000000000000E+00  0.0000000000000E+00
356  3.5500000000000E+00  0.0000000000000E+00  0.0000000000000E+00
357  3.5600000000000E+00  0.0000000000000E+00  0.0000000000000E+00
358  3.5700000000000E+00  0.0000000000000E+00  0.0000000000000E+00
359  3.5800000000000E+00  0.0000000000000E+00  0.0000000000000E+00
360  3.5900000000000E+00  0.0000000000000E+00  0.0000000000000E+00
361  3.6000000000000E+00  0.0000000000000E+00  0.0000000000000E+00
362  3.6100000000000E+00  0.0000000000000E+00  0.0000000000000E+00
363  3.6200000000000E+00  0.0000000000000E+00  0.0000000000000E+00
364  3.6300000000000E+00  0.0000000000000E+00  0.0000000000000E+00
365  3.6400000000000E+00  0.0000000000000E+00  0.0000000000000E+00
366  3.6500000000000E+00  0.0000000000000E+00  0.0000000000000E+00
367  3.6600000000000E+00  0.0000000000000E+00  0.0000000000000E+00
368  3.6700000000000E+00  0.0000000000000E+00  0.0000000000000E+00
369  3.6800000000000E+00  0.0000000000000E+00  0.0000000000000E+00
370  3.6900000000000E+00  0.0000000000000E+00  0.0000000000000E+00
371  3.7000000000000E+00  0.0000000000000E+00  0.0000000000000E+00
372  3.7100000000000E+00  0.0000000000000E+00  0.0000000000000E+00
373  3.7200000000000E+00  0.0000000000000E+00  0.0000000000000E+00
374  3.7300000000000E+00  0.0000000000000E+00  0.0000000000000E+00
375  3.7400000000000E+00  0.0000000000000E+00  0.0000000000000E+00
376  3.7500000000000E+00  0.0000000000000E+00  0.0000000000000E+00
377  3.7600000000000E+00  0.0000000000000E+00  0.0000000000000E+00
378  3.7700000000000E+00  0.0000000000000E+00  0.0000000000000E+00
379  3.7800000000000E+00  0.0000000000000E+00  0.0000000000000E+00
380  3.7900000000000E+00  0.0000000000000E+00  0.0000000000000E+00
381  3.8000000000000E+00  0.0000000000000E+00  0.0000000000000E+00
382  3.8100000000000E+00  0.0000000000000E+00  0.0000000000000E+00
383  3.8200000000000E+00  0.0000000000000E+00  0.0000000000000E+00
384  3.8300000000000E+00  0.0000000000000E+00  0.0000000000000E+00
385  3.8400000000000E+00  0.0000000000000E+00  0.0000000000000E+00
386  3.8500000000000E+00  0.0000000000000E+00  0.0000000000000E+00
387  3.8600000000000E+00  0.0000000000000E+00  0.0000000000000E+00
388  3.8700000000000E+00  0.0000000000000E+00  0.0000000000000E+00
389  3.8800000000000E+00  0.0000000000000E+00  0.0000000000000E+00
390  3.8900000000000E+00  0.0000000000000E+00  0.0000000000000E+00
391  3.9000000000000E+00  0.0000000000000E+00  0.0000000000000E+00
392  3.9100000000000E+00  0.0000000000000E+00  0.0000000000000E+00
393  3.9200000000000E+00  0.0000000000000E+00  0.0000000000000E+00
394  3.9300000000000E+00  0.0000000000000E+00  0.0000000000000E+00
395  3.9400000000000E+00  0.0000000000000E+00  0.0000000000000E+00
396  3.9500000000000E+00  0.0000000000000E+00  0.0000000000000E+00
397  3.9600000000000E+00  0.0000000000000E+00  0.0000000000000E+00
398  3.9700000000000E+00  0.0000000000000E+00  0.0000000000000E+00
399  3.9800000000000E+00  0.0000000000000E+00  0.0000000000000E+00
400  3.9900000000000E+00  0.0000000000000E+00  0.0000000000000E+00
401  4.0000000000000E+00  0.0000000000000E+00  0.0000000000000E+00
402  4.0100000000000E+00  0.0000000000000E+00  0.0000000000000E+00
403  4.0200000000000E+00  0.0000000000000E+00  0.0000000000000E+00
404  4.0300000000000E+00  0.0000000000000E+00  0.0000000000000E+00
405  4.0400000000000E+00  0.0000000000000E+00  0.0000000000000E+00
406  4.0500000000000E+00  0.0000000000000E+00  0.0000000000000E+00
407  4.0600000000000E+00  0.0000000000000E+00  0.0000000000000E+00
408  4.0700000000000E+00  0.0000000000000E+00  0.0000000000000E+00
409  4.0800000000000E+00  0.0000000000000E+00  0.0000000000000E+00
410  4.0900000000000E+00  0.0000000000000E+00  0.0000000000000E+00
411  4.1000000000000E+00  0.0000000000000E+00  0.0000000000000E+00
412  4.1100000000000E+00  0.0000000000000E+00  0.0000000000000E+00
413  4.1200000000000E+00  0.0000000000000E+00  0.0000000000000E+00
414  4.1300000000000E+00  0.0000000000000E+00  0.0000000000000E+00
415  4.1400000000000E+00  0.0000000000000E+00  0.0000000000000E+00
416  4.1500000000000E+00  0.0000000000000E+00  0.0000000000000E+00
417  4.1600000000000E+00  0.0000000000000E+00  0.0000000000000E+00
418  4.1700000000000E+00  0.0000000000000E+00  0.0000000000000E+00
419  4.1800000000000E+00  0.0000000000000E+00  0.0000000000000E+00
420  4.1900000000000E+00  0.0000000000000E+00  0.0000000000000E+00
421  4.2000000000000E+00  0.0000000000000E+00  0.0000000000000E+00
422  4.2100000000000E+00  0.0000000000000E+00  0.0000000000000E+00
423  4.2200000000000E+00  0.0000000000000E+00  0.0000000000000E+00
424  4.2300000000000E+00  0.0000000000000E+00  0.0000000000000E+00
425  4.2400000000000E+00  0.0000000000000E+00  0.0000000000000E+00
426  4.2500000000000E+00  0.0000000000000E+00  0.0000000000000E+00
427  4.2600000000000E+00  0.0000000000000E+00  0.0000000000000E+00
428  4.2700000000000E+00  0.0000000000000E+00  0.0000000000000E+00
429  4.2800000000000E+00  0.0000000000000E+00  0.0000000000000E+00
430  4.2900000000000E+00  0.0000000000000E+00  0.0000000000000E+00
431  4.3000000000000E+00  0.0000000000000E+00  0.0000000000000E+00
432  4.3100000000000E+00  0.0000000000000E+00  0.0000000000000E+00
433  4.3200000000000E+00  0.0000000000000E+00  0.0000000000000E+00
434  4.3300000000000E+00  0.0000000000000E+00  0.0000000000000E+00
435  4.3400000000000E+00  0.0000000000000E+00  0.0000000000000E+00
436  4.3500000000000E+00  0.0000000000000E+00  0.0000000000000E+00
437  4.3600000000000E+00  0.0000000000000E+00  0.0000000000000E+00
438  4.3700000000000E+00  0.0000000000000E+00  0.0000000000000E+00
439  4.3800000000000E+00  0.0000000000000E+00  0.0000000000000E+00
440  4.3900000000000E+00  0.0000000000000E+00  0.0000000000000E+00
441  4.4000000000000E+00  0.0000000000000E+00  0.0000000000000E+00
442  4.4100000000000E+00  0.0000000000000E+00  0.0000000000000E+00
443  4.4200000000000E+00  0.0000000000000E+00  0.0000000000000E+00