Sn    ONCVPSP-3.2.3.1  r_core=   2.27326   2.62311   1.85601
50.0000     14.0000      170510    zatom,zion,pspd
8      11   2     4   600     0    pspcod,pspxc,lmax,lloc,mmax,r2well
5.99000000  6.50000000  0.00000000    rchrg fchrg qchrg
2     2     2     0     0    nproj
1     1           extension_switch
0                         5.5821840259785E+00  7.4896945783376E-01
1  0.0000000000000E+00  7.4508454961375E-13 -5.6747176402361E-12
2  1.0000000000000E-02  1.3703030313959E-02  7.2511158485300E-03
3  2.0000000000000E-02  2.7418287692237E-02  1.4452116488732E-02
4  3.0000000000000E-02  4.1157951256844E-02  2.1553077611627E-02
5  4.0000000000000E-02  5.4934104357114E-02  2.8504456124030E-02
6  5.0000000000000E-02  6.8758686963027E-02  3.5257279300592E-02
7  6.0000000000000E-02  8.2643448393605E-02  4.1763332192820E-02
8  7.0000000000000E-02  9.6599900491183E-02  4.7975342720727E-02
9  8.0000000000000E-02  1.1063927135163E-01  5.3847163878428E-02
10  9.0000000000000E-02  1.2477245971960E-01  5.9333952492176E-02
11  1.0000000000000E-01  1.3900999015688E-01  6.4392343977768E-02
12  1.1000000000000E-01  1.5336196909040E-01  6.8980622554204E-02
13  1.2000000000000E-01  1.6783804184516E-01  7.3058886381802E-02
14  1.3000000000000E-01  1.8244735076551E-01  7.6589207105584E-02
15  1.4000000000000E-01  1.9719849452641E-01  7.9535783298826E-02
16  1.5000000000000E-01  2.1209948873413E-01  8.1865087317022E-02
17  1.6000000000000E-01  2.2715772791371E-01  8.3546005089186E-02
18  1.7000000000000E-01  2.4237994897809E-01  8.4549968391518E-02
19  1.8000000000000E-01  2.5777219627094E-01  8.4851079167510E-02
20  1.9000000000000E-01  2.7333978827274E-01  8.4426225479405E-02
21  2.0000000000000E-01  2.8908728605648E-01  8.3255188697413E-02
22  2.1000000000000E-01  3.0501846357624E-01  8.1320741556164E-02
23  2.2000000000000E-01  3.2113627986838E-01  7.8608736731984E-02
24  2.3000000000000E-01  3.3744285324193E-01  7.5108185619717E-02
25  2.4000000000000E-01  3.5393943753068E-01  7.0811327014182E-02
26  2.5000000000000E-01  3.7062640047566E-01  6.5713685428715E-02
27  2.6000000000000E-01  3.8750320430295E-01  5.9814118811403E-02
28  2.7000000000000E-01  4.0456838855700E-01  5.3114855449046E-02
29  2.8000000000000E-01  4.2181955524595E-01  4.5621519878844E-02
30  2.9000000000000E-01  4.3925335635009E-01  3.7343147658865E-02
31  3.0000000000000E-01  4.5686548374069E-01  2.8292188879890E-02
32  3.1000000000000E-01  4.7465066155106E-01  1.8484500333671E-02
33  3.2000000000000E-01  4.9260264103689E-01  7.9393262856262E-03
34  3.3000000000000E-01  5.1071419795781E-01 -3.3207321665835E-03
35  3.4000000000000E-01  5.2897713250683E-01 -1.5269759133152E-02
36  3.5000000000000E-01  5.4738227180899E-01 -2.7878577321117E-02
37  3.6000000000000E-01  5.6591947500478E-01 -4.1114812687859E-02
38  3.7000000000000E-01  5.8457764092888E-01 -5.4942970240012E-02
39  3.8000000000000E-01  6.0334471838832E-01 -6.9324520823658E-02
40  3.9000000000000E-01  6.2220771903902E-01 -8.4217998716912E-02
41  4.0000000000000E-01  6.4115273285330E-01 -9.9579109801023E-02
42  4.1000000000000E-01  6.6016494616540E-01 -1.1536085005189E-01
43  4.2000000000000E-01  6.7922866227583E-01 -1.3151363405922E-01
44  4.3000000000000E-01  6.9832732458926E-01 -1.4798543324689E-01
45  4.4000000000000E-01  7.1744354225490E-01 -1.6472192343485E-01
46  4.5000000000000E-01  7.3655911827181E-01 -1.8166664135002E-01
47  4.6000000000000E-01  7.5565508001581E-01 -1.9876114966188E-01
48  4.7000000000000E-01  7.7471171213837E-01 -2.1594521008734E-01
49  4.8000000000000E-01  7.9370859178182E-01 -2.3315696407938E-01
50  4.9000000000000E-01  8.1262462604919E-01 -2.5033312058519E-01
51  5.0000000000000E-01  8.3143809166107E-01 -2.6740915033148E-01
52  5.1000000000000E-01  8.5012667672554E-01 -2.8431948606845E-01
53  5.2000000000000E-01  8.6866752454219E-01 -3.0099772817902E-01
54  5.3000000000000E-01  8.8703727935449E-01 -3.1737685503629E-01
55  5.4000000000000E-01  9.0521213395982E-01 -3.3338943747030E-01
56  5.5000000000000E-01  9.2316787908084E-01 -3.4896785668593E-01
57  5.6000000000000E-01  9.4087995439622E-01 -3.6404452495460E-01
58  5.7000000000000E-01  9.5832350112377E-01 -3.7855210838702E-01
59  5.8000000000000E-01  9.7547341604404E-01 -3.9242375107988E-01
60  5.9000000000000E-01  9.9230440684736E-01 -4.0559329991737E-01
61  6.0000000000000E-01  1.0087910486829E+00 -4.1799552929861E-01
62  6.1000000000000E-01  1.0249078417837E+00 -4.2956636505485E-01
63  6.2000000000000E-01  1.0406292700381E+00 -4.4024310681482E-01
64  6.3000000000000E-01  1.0559298603723E+00 -4.4996464807432E-01
65  6.4000000000000E-01  1.0707842428084E+00 -4.5867169322565E-01
66  6.5000000000000E-01  1.0851672110551E+00 -4.6630697080492E-01
67  6.6000000000000E-01  1.0990537834881E+00 -4.7281544222008E-01
68  6.7000000000000E-01  1.1124192643735E+00 -4.7814450523019E-01
69  6.8000000000000E-01  1.1252393051844E+00 -4.8224419145592E-01
70  6.9000000000000E-01  1.1374899658601E+00 -4.8506735721480E-01
71  7.0000000000000E-01  1.1491477758558E+00 -4.8656986698909E-01
72  7.1000000000000E-01  1.1601897948263E+00 -4.8671076885282E-01
73  7.2000000000000E-01  1.1705936727917E+00 -4.8545246120405E-01
74  7.3000000000000E-01  1.1803377096272E+00 -4.8276085017249E-01
75  7.4000000000000E-01  1.1894009137216E+00 -4.7860549709690E-01
76  7.5000000000000E-01  1.1977630596497E+00 -4.7295975549554E-01
77  7.6000000000000E-01  1.2054047447036E+00 -4.6580089698244E-01
78  7.7000000000000E-01  1.2123074441273E+00 -4.5711022561558E-01
79  7.8000000000000E-01  1.2184535649052E+00 -4.4687318019682E-01
80  7.9000000000000E-01  1.2238264979514E+00 -4.3507942408144E-01
81  8.0000000000000E-01  1.2284106685531E+00 -4.2172292209302E-01
82  8.1000000000000E-01  1.2321915849222E+00 -4.0680200418083E-01
83  8.2000000000000E-01  1.2351558847136E+00 -3.9031941549902E-01
84  8.3000000000000E-01  1.2372913793702E+00 -3.7228235263115E-01
85  8.4000000000000E-01  1.2385870961619E+00 -3.5270248572927E-01
86  8.5000000000000E-01  1.2390333177870E+00 -3.3159596638360E-01
87  8.6000000000000E-01  1.2386216194116E+00 -3.0898342108699E-01
88  8.7000000000000E-01  1.2373449030265E+00 -2.8488993020746E-01
89  8.8000000000000E-01  1.2351974290075E+00 -2.5934499243177E-01
90  8.9000000000000E-01  1.2321748447710E+00 -2.3238247469398E-01
91  9.0000000000000E-01  1.2282742104221E+00 -2.0404054765351E-01
92  9.1000000000000E-01  1.2234940213011E+00 -1.7436160683844E-01
93  9.2000000000000E-01  1.2178342273395E+00 -1.4339217962152E-01
94  9.3000000000000E-01  1.2112962491455E+00 -1.1118281824704E-01
95  9.4000000000000E-01  1.2038829907453E+00 -7.7787979177723E-02
96  9.5000000000000E-01  1.1955988489163E+00 -4.3265889081096E-02
97  9.6000000000000E-01  1.1864497190546E+00 -7.6783978245127E-03
98  9.7000000000000E-01  1.1764429975301E+00  2.8909181104091E-02
99  9.8000000000000E-01  1.1655875804885E+00  6.6428242284148E-02
100  9.9000000000000E-01  1.1538938590716E+00  1.0480707164830E-01
101  1.0000000000000E+00  1.1413737110336E+00  1.4397104081022E-01
102  1.0100000000000E+00  1.1280404887431E+00  1.8384281183584E-01
103  1.0200000000000E+00  1.1139090035672E+00  2.2434255181875E-01
104  1.0300000000000E+00  1.0989955066477E+00  2.6538815658023E-01
105  1.0400000000000E+00  1.0833176660834E+00  3.0689548278078E-01
106  1.0500000000000E+00  1.0668945405489E+00  3.4877858769216E-01
107  1.0600000000000E+00  1.0497465493843E+00  3.9094997584997E-01
108  1.0700000000000E+00  1.0318954392042E+00  4.3332085177682E-01
109  1.0800000000000E+00  1.0133642470814E+00  4.7580137793975E-01
110  1.0900000000000E+00  9.9417726037215E-01  5.1830093708450E-01
111  1.1000000000000E+00  9.7435997325903E-01  5.6072839806657E-01
112  1.1100000000000E+00  9.5393904009589E-01  6.0299238428375E-01
113  1.1200000000000E+00  9.3294222565139E-01  6.4500154380122E-01
114  1.1300000000000E+00  9.1139835235422E-01  6.8666482025030E-01
115  1.1400000000000E+00  8.8933724465311E-01  7.2789172357487E-01
116  1.1500000000000E+00  8.6678967061425E-01  7.6859259969586E-01
117  1.1600000000000E+00  8.4378728088692E-01  8.0867889816571E-01
118  1.1700000000000E+00  8.2036254517574E-01  8.4806343688793E-01
119  1.1800000000000E+00  7.9654868636628E-01  8.8666066298271E-01
120  1.1900000000000E+00  7.7237961245942E-01  9.2438690889210E-01
121  1.2000000000000E+00  7.4788984647671E-01  9.6116064283540E-01
122  1.2100000000000E+00  7.2311445450368E-01  9.9690271273340E-01
123  1.2200000000000E+00  6.9808897204842E-01  1.0315365827515E+00
124  1.2300000000000E+00  6.7284932889651E-01  1.0649885616344E+00
125  1.2400000000000E+00  6.4743177264887E-01  1.0971880220268E+00
126  1.2500000000000E+00  6.2187279113476E-01  1.1280676100058E+00
127  1.2600000000000E+00  5.9620903389809E-01  1.1575634440970E+00
128  1.2700000000000E+00  5.7047723295712E-01  1.1856153030678E+00
129  1.2800000000000E+00  5.4471412304231E-01  1.2121668018280E+00
130  1.2900000000000E+00  5.1895636152142E-01  1.2371655548345E+00
131  1.3000000000000E+00  4.9324044822126E-01  1.2605633264161E+00
132  1.3100000000000E+00  4.6760264535899E-01  1.2823161674745E+00
133  1.3200000000000E+00  4.4207889779742E-01  1.3023845381130E+00
134  1.3300000000000E+00  4.1670475383823E-01  1.3207334157338E+00
135  1.3400000000000E+00  3.9151528676947E-01  1.3373323882230E+00
136  1.3500000000000E+00  3.6654501738056E-01  1.3521557319400E+00
137  1.3600000000000E+00  3.4182783766020E-01  1.3651824741747E+00
138  1.3700000000000E+00  3.1739693588931E-01  1.3763964399025E+00
139  1.3800000000000E+00  2.9328472333684E-01  1.3857862826884E+00
140  1.3900000000000E+00  2.6952276277134E-01  1.3933454995636E+00
141  1.4000000000000E+00  2.4614169898610E-01  1.3990724299292E+00
142  1.4100000000000E+00  2.2317119154286E-01  1.4029702384151E+00
143  1.4200000000000E+00  2.0063984993066E-01  1.4050468817829E+00
144  1.4300000000000E+00  1.7857517132273E-01  1.4053150600525E+00
145  1.4400000000000E+00  1.5700348113173E-01  1.4037921519044E+00
146  1.4500000000000E+00  1.3594987652510E-01  1.4005001347415E+00
147  1.4600000000000E+00  1.1543817308747E-01  1.3954654895689E+00
148  1.4700000000000E+00  9.5490854789922E-02  1.3887190910940E+00
149  1.4800000000000E+00  7.6129027417447E-02  1.3802960834472E+00
150  1.4900000000000E+00  5.7372375625179E-02  1.3702357418658E+00
151  1.5000000000000E+00  3.9239123730331E-02  1.3585813209813E+00
152  1.5100000000000E+00  2.1746000415390E-02  1.3453798900406E+00
153  1.5200000000000E+00  4.9082074220296E-03  1.3306821558189E+00
154  1.5300000000000E+00 -1.1260607616515E-02  1.3145422736813E+00
155  1.5400000000000E+00 -2.6748374121593E-02  1.2970176475272E+00
156  1.5500000000000E+00 -4.1544617198399E-02  1.2781687192598E+00
157  1.5600000000000E+00 -5.5640471850325E-02  1.2580587484708E+00
158  1.5700000000000E+00 -6.9028692743589E-02  1.2367535831317E+00
159  1.5800000000000E+00 -8.1703659405647E-02  1.2143214219613E+00
160  1.5900000000000E+00 -9.3661376886382E-02  1.1908325693567E+00
161  1.6000000000000E+00 -1.0489947174989E-01  1.1663591835694E+00
162  1.6100000000000E+00 -1.1541718348034E-01  1.1409750190432E+00
163  1.6200000000000E+00 -1.2521535117409E-01  1.1147551636493E+00
164  1.6300000000000E+00 -1.3429639563133E-01  1.0877757717056E+00
165  1.6400000000000E+00 -1.4266429674797E-01  1.0601137935819E+00
166  1.6500000000000E+00 -1.5032456633393E-01  1.0318467027259E+00
167  1.6600000000000E+00 -1.5728421629515E-01  1.0030522209603E+00
168  1.6700000000000E+00 -1.6355172231750E-01  9.7380804283081E-01
169  1.6800000000000E+00 -1.6913698302285E-01  9.4419155988003E-01
170  1.6900000000000E+00 -1.7405127475248E-01  9.1427958556301E-01
171  1.7000000000000E+00 -1.7830720197408E-01  8.8414808169420E-01
172  1.7100000000000E+00 -1.8191864349094E-01  8.5387188705610E-01
173  1.7200000000000E+00 -1.8490069446714E-01  8.2352444907764E-01
174  1.7300000000000E+00 -1.8726960447794E-01  7.9317755909063E-01
175  1.7400000000000E+00 -1.8904271160730E-01  7.6290109211492E-01
176  1.7500000000000E+00 -1.9023837283971E-01  7.3276275150295E-01
177  1.7600000000000E+00 -1.9087589076659E-01  7.0282781948189E-01
178  1.7700000000000E+00 -1.9097543689905E-01  6.7315891367327E-01
179  1.7800000000000E+00 -1.9055797159734E-01  6.4381575077981E-01
180  1.7900000000000E+00 -1.8964516095565E-01  6.1485491718754E-01
181  1.8000000000000E+00 -1.8825929007175E-01  5.8632964379889E-01
182  1.8100000000000E+00 -1.8642317684564E-01  5.5828961136297E-01
183  1.8200000000000E+00 -1.8416007190356E-01  5.3078068837165E-01
184  1.8300000000000E+00 -1.8149358564824E-01  5.0384487004438E-01
185  1.8400000000000E+00 -1.7844757707919E-01  4.7752000594448E-01
186  1.8500000000000E+00 -1.7504602193860E-01  4.5183936632254E-01
187  1.8600000000000E+00 -1.7131296237997E-01  4.2683182535065E-01
188  1.8700000000000E+00 -1.6727248798108E-01  4.0252231663351E-01
189  1.8800000000000E+00 -1.6294871190987E-01  3.7893218504194E-01
190  1.8900000000000E+00 -1.5836578249356E-01  3.5607965870838E-01
191  1.9000000000000E+00 -1.5354791184608E-01  3.3398048442161E-01
192  1.9100000000000E+00 -1.4851928499267E-01  3.1264768109656E-01
193  1.9200000000000E+00 -1.4330399944468E-01  2.9209146445342E-01
194  1.9300000000000E+00 -1.3792603218508E-01  2.7231944890751E-01
195  1.9400000000000E+00 -1.3240918715454E-01  2.5333668019815E-01
196  1.9500000000000E+00 -1.2677704800769E-01  2.3514571474324E-01
197  1.9600000000000E+00 -1.2105293263865E-01  2.1774671578351E-01
198  1.9700000000000E+00 -1.1525984745372E-01  2.0113754859397E-01
199  1.9800000000000E+00 -1.0942044297011E-01  1.8531388589714E-01
200  1.9900000000000E+00 -1.0355697031645E-01  1.7026931952788E-01
201  2.0000000000000E+00 -9.7691238919321E-02  1.5599547867157E-01
202  2.0100000000000E+00 -9.1844575202423E-02  1.4248215307693E-01
203  2.0200000000000E+00 -8.6037782486435E-02  1.2971742096488E-01
204  2.0300000000000E+00 -8.0291102071556E-02  1.1768778073805E-01
205  2.0400000000000E+00 -7.4624175505053E-02  1.0637828566101E-01
206  2.0500000000000E+00 -6.9056008154077E-02  9.5772680748801E-02
207  2.0600000000000E+00 -6.3604933995890E-02  8.5853541259680E-02
208  2.0700000000000E+00 -5.8288581752969E-02  7.6602411637153E-02
209  2.0800000000000E+00 -5.3123842331520E-02  6.7999944556178E-02
210  2.0900000000000E+00 -4.8126837602028E-02  6.0026039156809E-02
211  2.1000000000000E+00 -4.3312890562648E-02  5.2659977374579E-02
212  2.1100000000000E+00 -3.8696496865328E-02  4.5880558650917E-02
213  2.1200000000000E+00 -3.4291297763041E-02  3.9666230891586E-02
214  2.1300000000000E+00 -3.0110054469074E-02  3.3995218334549E-02
215  2.1400000000000E+00 -2.6164623955523E-02  2.8845645129976E-02
216  2.1500000000000E+00 -2.2465936214251E-02  2.4195653415001E-02
217  2.1600000000000E+00 -1.9023972981922E-02  2.0023517040622E-02
218  2.1700000000000E+00 -1.5847747965608E-02  1.6307748125245E-02
219  2.1800000000000E+00 -1.2945288570320E-02  1.3027197717102E-02
220  2.1900000000000E+00 -1.0323619146982E-02  1.0161149810258E-02
221  2.2000000000000E+00 -7.9901995624603E-03  7.6904719821653E-03
222  2.2100000000000E+00 -5.9477184041135E-03  5.5938894061128E-03
223  2.2200000000000E+00 -4.1978104576008E-03  3.8508041077658E-03
224  2.2300000000000E+00 -2.7376946764915E-03  2.4392442929631E-03
225  2.2400000000000E+00 -1.5905388749298E-03  1.3565581999765E-03
226  2.2500000000000E+00 -7.6690218529030E-04  5.9216243949956E-04
227  2.2600000000000E+00 -2.5134146831661E-04  1.2026760837587E-04
228  2.2700000000000E+00  1.3183220373285E-05 -1.0965474370327E-04
229  2.2800000000000E+00  9.2197089430706E-05 -1.5294041774241E-04
230  2.2900000000000E+00  6.4150232881651E-05 -9.0630057369838E-05
231  2.3000000000000E+00  3.0874894214668E-06 -4.1181264522608E-06
232  2.3100000000000E+00 -2.1720785039960E-05  2.8581504115444E-05
233  2.3200000000000E+00 -1.6472822008406E-05  2.1202674893803E-05
234  2.3300000000000E+00  1.0963491366071E-06 -1.5540662655848E-06
235  2.3400000000000E+00  4.3837086349348E-06 -6.1294251602043E-06
236  2.3500000000000E+00  2.6236554345742E-06 -3.6299623363666E-06
237  2.3600000000000E+00 -7.6220589724547E-08  1.9299947690159E-07
238  2.3700000000000E+00 -1.5897468862343E-07  4.0254256567415E-07
239  2.3800000000000E+00 -7.0015376381834E-08  1.7728714859852E-07
240  2.3900000000000E+00  0.0000000000000E+00  0.0000000000000E+00
241  2.4000000000000E+00  0.0000000000000E+00  0.0000000000000E+00
242  2.4100000000000E+00  0.0000000000000E+00  0.0000000000000E+00
243  2.4200000000000E+00  0.0000000000000E+00  0.0000000000000E+00
244  2.4300000000000E+00  0.0000000000000E+00  0.0000000000000E+00
245  2.4400000000000E+00  0.0000000000000E+00  0.0000000000000E+00
246  2.4500000000000E+00  0.0000000000000E+00  0.0000000000000E+00
247  2.4600000000000E+00  0.0000000000000E+00  0.0000000000000E+00
248  2.4700000000000E+00  0.0000000000000E+00  0.0000000000000E+00
249  2.4800000000000E+00  0.0000000000000E+00  0.0000000000000E+00
250  2.4900000000000E+00  0.0000000000000E+00  0.0000000000000E+00
251  2.5000000000000E+00  0.0000000000000E+00  0.0000000000000E+00
252  2.5100000000000E+00  0.0000000000000E+00  0.0000000000000E+00
253  2.5200000000000E+00  0.0000000000000E+00  0.0000000000000E+00
254  2.5300000000000E+00  0.0000000000000E+00  0.0000000000000E+00
255  2.5400000000000E+00  0.0000000000000E+00  0.0000000000000E+00
256  2.5500000000000E+00  0.0000000000000E+00  0.0000000000000E+00
257  2.5600000000000E+00  0.0000000000000E+00  0.0000000000000E+00
258  2.5700000000000E+00  0.0000000000000E+00  0.0000000000000E+00
259  2.5800000000000E+00  0.0000000000000E+00  0.0000000000000E+00
260  2.5900000000000E+00  0.0000000000000E+00  0.0000000000000E+00
261  2.6000000000000E+00  0.0000000000000E+00  0.0000000000000E+00
262  2.6100000000000E+00  0.0000000000000E+00  0.0000000000000E+00
263  2.6200000000000E+00  0.0000000000000E+00  0.0000000000000E+00
264  2.6300000000000E+00  0.0000000000000E+00  0.0000000000000E+00
265  2.6400000000000E+00  0.0000000000000E+00  0.0000000000000E+00
266  2.6500000000000E+00  0.0000000000000E+00  0.0000000000000E+00
267  2.6600000000000E+00  0.0000000000000E+00  0.0000000000000E+00
268  2.6700000000000E+00  0.0000000000000E+00  0.0000000000000E+00
269  2.6800000000000E+00  0.0000000000000E+00  0.0000000000000E+00
270  2.6900000000000E+00  0.0000000000000E+00  0.0000000000000E+00
271  2.7000000000000E+00  0.0000000000000E+00  0.0000000000000E+00
272  2.7100000000000E+00  0.0000000000000E+00  0.0000000000000E+00
273  2.7200000000000E+00  0.0000000000000E+00  0.0000000000000E+00
274  2.7300000000000E+00  0.0000000000000E+00  0.0000000000000E+00
275  2.7400000000000E+00  0.0000000000000E+00  0.0000000000000E+00
276  2.7500000000000E+00  0.0000000000000E+00  0.0000000000000E+00
277  2.7600000000000E+00  0.0000000000000E+00  0.0000000000000E+00
278  2.7700000000000E+00  0.0000000000000E+00  0.0000000000000E+00
279  2.7800000000000E+00  0.0000000000000E+00  0.0000000000000E+00
280  2.7900000000000E+00  0.0000000000000E+00  0.0000000000000E+00
281  2.8000000000000E+00  0.0000000000000E+00  0.0000000000000E+00
282  2.8100000000000E+00  0.0000000000000E+00  0.0000000000000E+00
283  2.8200000000000E+00  0.0000000000000E+00  0.0000000000000E+00
284  2.8300000000000E+00  0.0000000000000E+00  0.0000000000000E+00
285  2.8400000000000E+00  0.0000000000000E+00  0.0000000000000E+00
286  2.8500000000000E+00  0.0000000000000E+00  0.0000000000000E+00
287  2.8600000000000E+00  0.0000000000000E+00  0.0000000000000E+00
288  2.8700000000000E+00  0.0000000000000E+00  0.0000000000000E+00
289  2.8800000000000E+00  0.0000000000000E+00  0.0000000000000E+00
290  2.8900000000000E+00  0.0000000000000E+00  0.0000000000000E+00
291  2.9000000000000E+00  0.0000000000000E+00  0.0000000000000E+00
292  2.9100000000000E+00  0.0000000000000E+00  0.0000000000000E+00
293  2.9200000000000E+00  0.0000000000000E+00  0.0000000000000E+00
294  2.9300000000000E+00  0.0000000000000E+00  0.0000000000000E+00
295  2.9400000000000E+00  0.0000000000000E+00  0.0000000000000E+00
296  2.9500000000000E+00  0.0000000000000E+00  0.0000000000000E+00
297  2.9600000000000E+00  0.0000000000000E+00  0.0000000000000E+00
298  2.9700000000000E+00  0.0000000000000E+00  0.0000000000000E+00
299  2.9800000000000E+00  0.0000000000000E+00  0.0000000000000E+00
300  2.9900000000000E+00  0.0000000000000E+00  0.0000000000000E+00
301  3.0000000000000E+00  0.0000000000000E+00  0.0000000000000E+00
302  3.0100000000000E+00  0.0000000000000E+00  0.0000000000000E+00
303  3.0200000000000E+00  0.0000000000000E+00  0.0000000000000E+00
304  3.0300000000000E+00  0.0000000000000E+00  0.0000000000000E+00
305  3.0400000000000E+00  0.0000000000000E+00  0.0000000000000E+00
306  3.0500000000000E+00  0.0000000000000E+00  0.0000000000000E+00
307  3.0600000000000E+00  0.0000000000000E+00  0.0000000000000E+00
308  3.0700000000000E+00  0.0000000000000E+00  0.0000000000000E+00
309  3.0800000000000E+00  0.0000000000000E+00  0.0000000000000E+00
310  3.0900000000000E+00  0.0000000000000E+00  0.0000000000000E+00
311  3.1000000000000E+00  0.0000000000000E+00  0.0000000000000E+00
312  3.1100000000000E+00  0.0000000000000E+00  0.0000000000000E+00
313  3.1200000000000E+00  0.0000000000000E+00  0.0000000000000E+00
314  3.1300000000000E+00  0.0000000000000E+00  0.0000000000000E+00
315  3.1400000000000E+00  0.0000000000000E+00  0.0000000000000E+00
316  3.1500000000000E+00  0.0000000000000E+00  0.0000000000000E+00
317  3.1600000000000E+00  0.0000000000000E+00  0.0000000000000E+00
318  3.1700000000000E+00  0.0000000000000E+00  0.0000000000000E+00
319  3.1800000000000E+00  0.0000000000000E+00  0.0000000000000E+00
320  3.1900000000000E+00  0.0000000000000E+00  0.0000000000000E+00
321  3.2000000000000E+00  0.0000000000000E+00  0.0000000000000E+00
322  3.2100000000000E+00  0.0000000000000E+00  0.0000000000000E+00
323  3.2200000000000E+00  0.0000000000000E+00  0.0000000000000E+00
324  3.2300000000000E+00  0.0000000000000E+00  0.0000000000000E+00
325  3.2400000000000E+00  0.0000000000000E+00  0.0000000000000E+00
326  3.2500000000000E+00  0.0000000000000E+00  0.0000000000000E+00
327  3.2600000000000E+00  0.0000000000000E+00  0.0000000000000E+00
328  3.2700000000000E+00  0.0000000000000E+00  0.0000000000000E+00
329  3.2800000000000E+00  0.0000000000000E+00  0.0000000000000E+00
330  3.2900000000000E+00  0.0000000000000E+00  0.0000000000000E+00
331  3.3000000000000E+00  0.0000000000000E+00  0.0000000000000E+00
332  3.3100000000000E+00  0.0000000000000E+00  0.0000000000000E+00
333  3.3200000000000E+00  0.0000000000000E+00  0.0000000000000E+00
334  3.3300000000000E+00  0.0000000000000E+00  0.0000000000000E+00
335  3.3400000000000E+00  0.0000000000000E+00  0.0000000000000E+00
336  3.3500000000000E+00  0.0000000000000E+00  0.0000000000000E+00
337  3.3600000000000E+00  0.0000000000000E+00  0.0000000000000E+00
338  3.3700000000000E+00  0.0000000000000E+00  0.0000000000000E+00
339  3.3800000000000E+00  0.0000000000000E+00  0.0000000000000E+00
340  3.3900000000000E+00  0.0000000000000E+00  0.0000000000000E+00
341  3.4000000000000E+00  0.0000000000000E+00  0.0000000000000E+00
342  3.4100000000000E+00  0.0000000000000E+00  0.0000000000000E+00
343  3.4200000000000E+00  0.0000000000000E+00  0.0000000000000E+00
344  3.4300000000000E+00  0.0000000000000E+00  0.0000000000000E+00
345  3.4400000000000E+00  0.0000000000000E+00  0.0000000000000E+00
346  3.4500000000000E+00  0.0000000000000E+00  0.0000000000000E+00
347  3.4600000000000E+00  0.0000000000000E+00  0.0000000000000E+00
348  3.4700000000000E+00  0.0000000000000E+00  0.0000000000000E+00
349  3.4800000000000E+00  0.0000000000000E+00  0.0000000000000E+00
350  3.4900000000000E+00  0.0000000000000E+00  0.0000000000000E+00
351  3.5000000000000E+00  0.0000000000000E+00  0.0000000000000E+00
352  3.5100000000000E+00  0.0000000000000E+00  0.0000000000000E+00
353  3.5200000000000E+00  0.0000000000000E+00  0.0000000000000E+00
354  3.5300000000000E+00  0.0000000000000E+00  0.0000000000000E+00
355  3.5400000000000E+00  0.0000000000000E+00  0.0000000000000E+00
356  3.5500000000000E+00  0.0000000000000E+00  0.0000000000000E+00
357  3.5600000000000E+00  0.0000000000000E+00  0.0000000000000E+00
358  3.5700000000000E+00  0.0000000000000E+00  0.0000000000000E+00
359  3.5800000000000E+00  0.0000000000000E+00  0.0000000000000E+00
360  3.5900000000000E+00  0.0000000000000E+00  0.0000000000000E+00
361  3.6000000000000E+00  0.0000000000000E+00  0.0000000000000E+00
362  3.6100000000000E+00  0.0000000000000E+00  0.0000000000000E+00
363  3.6200000000000E+00  0.0000000000000E+00  0.0000000000000E+00
364  3.6300000000000E+00  0.0000000000000E+00  0.0000000000000E+00
365  3.6400000000000E+00  0.0000000000000E+00  0.0000000000000E+00
366  3.6500000000000E+00  0.0000000000000E+00  0.0000000000000E+00
367  3.6600000000000E+00  0.0000000000000E+00  0.0000000000000E+00
368  3.6700000000000E+00  0.0000000000000E+00  0.0000000000000E+00
369  3.6800000000000E+00  0.0000000000000E+00  0.0000000000000E+00
370  3.6900000000000E+00  0.0000000000000E+00  0.0000000000000E+00
371  3.7000000000000E+00  0.0000000000000E+00  0.0000000000000E+00
372  3.7100000000000E+00  0.0000000000000E+00  0.0000000000000E+00
373  3.7200000000000E+00  0.0000000000000E+00  0.0000000000000E+00
374  3.7300000000000E+00  0.0000000000000E+00  0.0000000000000E+00
375  3.7400000000000E+00  0.0000000000000E+00  0.0000000000000E+00
376  3.7500000000000E+00  0.0000000000000E+00  0.0000000000000E+00
377  3.7600000000000E+00  0.0000000000000E+00  0.0000000000000E+00
378  3.7700000000000E+00  0.0000000000000E+00  0.0000000000000E+00
379  3.7800000000000E+00  0.0000000000000E+00  0.0000000000000E+00
380  3.7900000000000E+00  0.0000000000000E+00  0.0000000000000E+00
381  3.8000000000000E+00  0.0000000000000E+00  0.0000000000000E+00
382  3.8100000000000E+00  0.0000000000000E+00  0.0000000000000E+00
383  3.8200000000000E+00  0.0000000000000E+00  0.0000000000000E+00
384  3.8300000000000E+00  0.0000000000000E+00  0.0000000000000E+00
385  3.8400000000000E+00  0.0000000000000E+00  0.0000000000000E+00
386  3.8500000000000E+00  0.0000000000000E+00  0.0000000000000E+00
387  3.8600000000000E+00  0.0000000000000E+00  0.0000000000000E+00
388  3.8700000000000E+00  0.0000000000000E+00  0.0000000000000E+00
389  3.8800000000000E+00  0.0000000000000E+00  0.0000000000000E+00
390  3.8900000000000E+00  0.0000000000000E+00  0.0000000000000E+00
391  3.9000000000000E+00  0.0000000000000E+00  0.0000000000000E+00
392  3.9100000000000E+00  0.0000000000000E+00  0.0000000000000E+00
393  3.9200000000000E+00  0.0000000000000E+00  0.0000000000000E+00
394  3.9300000000000E+00  0.0000000000000E+00  0.0000000000000E+00
395  3.9400000000000E+00  0.0000000000000E+00  0.0000000000000E+00
396  3.9500000000000E+00  0.0000000000000E+00  0.0000000000000E+00
397  3.9600000000000E+00  0.0000000000000E+00  0.0000000000000E+00
398  3.9700000000000E+00  0.0000000000000E+00  0.0000000000000E+00
399  3.9800000000000E+00  0.0000000000000E+00  0.0000000000000E+00
400  3.9900000000000E+00  0.0000000000000E+00  0.0000000000000E+00
401  4.0000000000000E+00  0.0000000000000E+00  0.0000000000000E+00
402  4.0100000000000E+00  0.0000000000000E+00  0.0000000000000E+00
403  4.0200000000000E+00  0.0000000000000E+00  0.0000000000000E+00
404  4.0300000000000E+00  0.0000000000000E+00  0.0000000000000E+00
405  4.0400000000000E+00  0.0000000000000E+00  0.0000000000000E+00
406  4.0500000000000E+00  0.0000000000000E+00  0.0000000000000E+00
407  4.0600000000000E+00  0.0000000000000E+00  0.0000000000000E+00
408  4.0700000000000E+00  0.0000000000000E+00  0.0000000000000E+00
409  4.0800000000000E+00  0.0000000000000E+00  0.0000000000000E+00
410  4.0900000000000E+00  0.0000000000000E+00  0.0000000000000E+00
411  4.1000000000000E+00  0.0000000000000E+00  0.0000000000000E+00
412  4.1100000000000E+00  0.0000000000000E+00  0.0000000000000E+00
413  4.1200000000000E+00  0.0000000000000E+00  0.0000000000000E+00
414  4.1300000000000E+00  0.0000000000000E+00  0.0000000000000E+00
415  4.1400000000000E+00  0.0000000000000E+00  0.0000000000000E+00
416  4.1500000000000E+00  0.0000000000000E+00  0.0000000000000E+00
417  4.1600000000000E+00  0.0000000000000E+00  0.0000000000000E+00
418  4.1700000000000E+00  0.0000000000000E+00  0.0000000000000E+00
419  4.1800000000000E+00  0.0000000000000E+00  0.0000000000000E+00
420  4.1900000000000E+00  0.0000000000000E+00  0.0000000000000E+00
421  4.2000000000000E+00  0.0000000000000E+00  0.0000000000000E+00
422  4.2100000000000E+00  0.0000000000000E+00  0.0000000000000E+00
423  4.2200000000000E+00  0.0000000000000E+00  0.0000000000000E+00
424  4.2300000000000E+00  0.0000000000000E+00  0.0000000000000E+00
425  4.2400000000000E+00  0.0000000000000E+00  0.0000000000000E+00
426  4.2500000000000E+00  0.0000000000000E+00  0.0000000000000E+00
427  4.2600000000000E+00  0.0000000000000E+00  0.0000000000000E+00
428  4.2700000000000E+00  0.0000000000000E+00  0.0000000000000E+00
429  4.2800000000000E+00  0.0000000000000E+00  0.0000000000000E+00
430  4.2900000000000E+00  0.0000000000000E+00  0.0000000000000E+00
431  4.3000000000000E+00  0.0000000000000E+00  0.0000000000000E+00
432  4.3100000000000E+00  0.0000000000000E+00  0.0000000000000E+00
433  4.3200000000000E+00  0.0000000000000E+00  0.0000000000000E+00
434  4.3300000000000E+00  0.0000000000000E+00  0.0000000000000E+00
435  4.3400000000000E+00  0.0000000000000E+00  0.0000000000000E+00
436  4.3500000000000E+00  0.0000000000000E+00  0.0000000000000E+00
437  4.3600000000000E+00  0.0000000000000E+00  0.0000000000000E+00
438  4.3700000000000E+00  0.0000000000000E+00  0.0000000000000E+00
439  4.3800000000000E+00  0.0000000000000E+00  0.0000000000000E+00
440  4.3900000000000E+00  0.0000000000000E+00  0.0000000000000E+00
441  4.4000000000000E+00  0.0000000000000E+00  0.0000000000000E+00
442  4.4100000000000E+00  0.0000000000000E+00  0.0000000000000E+00
443  4.4200000000000E+00  0.0000000000000E+00  0.0000000000000E+00