Sb    ONCVPSP-3.2.3.1  r_core=   1.81962   2.12485   1.81962
51.0000     15.0000      170510    zatom,zion,pspd
8      11   2     4   600     0    pspcod,pspxc,lmax,lloc,mmax,r2well
5.99000000  5.00000000  0.00000000    rchrg fchrg qchrg
2     2     2     0     0    nproj
1     1           extension_switch
0                         1.1006548683231E+01  1.8617651420336E+00
1  0.0000000000000E+00 -1.2167239438199E+10  1.4756368349467E+10
2  1.0000000000000E+02  5.1124500592408E+02 -4.3352365108691E+02
3  2.0000000000000E+02  1.0202953969867E+01 -8.6428272119998E+02
4  3.0000000000000E+02  1.5249688367983E+01 -1.2895278089005E+01
5  4.0000000000000E+02  2.0231074807063E+01 -1.7065397923874E+01
6  5.0000000000000E+02  2.5125900589523E+01 -2.1126447711077E+01
7  6.0000000000000E+02  2.9913437654342E+01 -2.5052287705557E+01
8  7.0000000000000E+02  3.4573558887009E+01 -2.8817521330566E+01
9  8.0000000000000E+02  3.9086851230254E+01 -3.2397635188034E+01
10  9.0000000000000E+02  4.3434724989133E+01 -3.5769134432504E+01
11  1.0000000000000E+01  4.7599518742086E+01 -3.8909672791578E+01
12  1.1000000000000E+01  5.1564599290461E+01 -4.1798176541098E+01
13  1.2000000000000E+01  5.5314456102672E+01 -4.4414961772029E+01
14  1.3000000000000E+01  5.8834789735467E+01 -4.6741844317930E+01
15  1.4000000000000E+01  6.2112593743745E+01 -4.8762241747000E+01
16  1.5000000000000E+01  6.5136229621767E+01 -5.0461266860792E+01
17  1.6000000000000E+01  6.7895494352380E+01 -5.1825812182681E+01
18  1.7000000000000E+01  7.0381680176916E+01 -5.2844624962846E+01
19  1.8000000000000E+01  7.2587626236538E+01 -5.3508372272791E+01
20  1.9000000000000E+01  7.4507761775890E+01 -5.3809695811037E+01
21  2.0000000000000E+01  7.6138140641778E+01 -5.3743256092420E+01
22  2.1000000000000E+01  7.7476466853118E+01 -5.3305765746173E+01
23  2.2000000000000E+01  7.8522111063303E+01 -5.2496011702521E+01
24  2.3000000000000E+01  7.9276117782383E+01 -5.1314866103550E+01
25  2.4000000000000E+01  7.9741203273670E+01 -4.9765285831429E+01
26  2.5000000000000E+01  7.9921744087545E+01 -4.7852300605486E+01
27  2.6000000000000E+01  7.9823756243958E+01 -4.5582989658741E+01
28  2.7000000000000E+01  7.9454865124314E+01 -4.2966447064180E+01
29  2.8000000000000E+01  7.8824266182818E+01 -4.0013735840992E+01
30  2.9000000000000E+01  7.7942676636632E+01 -3.6737831030738E+01
31  3.0000000000000E+01  7.6822278343297E+01 -3.3153551993042E+01
32  3.1000000000000E+01  7.5476652122324E+01 -2.9277484229154E+01
33  3.2000000000000E+01  7.3920703825660E+01 -2.5127891099749E+01
34  3.3000000000000E+01  7.2170582508395E+01 -2.0724615859941E+01
35  3.4000000000000E+01  7.0243591096535E+01 -1.6088974489674E+01
36  3.5000000000000E+01  6.8158089992599E+01 -1.1243639850953E+01
37  3.6000000000000E+01  6.5933394101890E+01 -6.2125177544765E+02
38  3.7000000000000E+01  6.3589663802444E+01 -1.0206155669713E+02
39  3.8000000000000E+01  6.1147790419493E+01  4.3060959635450E+02
40  3.9000000000000E+01  5.8629276800620E+01  9.7408269444240E+02
41  4.0000000000000E+01  5.6056113620445E+01  1.5256117877188E+01
42  4.1000000000000E+01  5.3450652073276E+01  2.0823993702701E+01
43  4.2000000000000E+01  5.0835473638751E+01  2.6416121524678E+01
44  4.3000000000000E+01  4.8233257628569E+01  3.2003971155394E+01
45  4.4000000000000E+01  4.5666647242050E+01  3.7558977603653E+01
46  4.5000000000000E+01  4.3158114874140E+01  4.3052704605653E+01
47  4.6000000000000E+01  4.0729827431466E+01  4.8457008284862E+01
48  4.7000000000000E+01  3.8403512420080E+01  5.3744200017113E+01
49  4.8000000000000E+01  3.6200325572363E+01  5.8887207572456E+01
50  4.9000000000000E+01  3.4140720780264E+01  6.3859733605548E+01
51  5.0000000000000E+01  3.2244323097350E+01  6.8636410571937E+01
52  5.1000000000000E+01  3.0529805563182E+01  7.3192951158416E+01
53  5.2000000000000E+01  2.9014770590130E+01  7.7506293331697E+01
54  5.3000000000000E+01  2.7715636634994E+01  8.1554739131120E+01
55  5.4000000000000E+01  2.6647530855655E+01  8.5318086357791E+01
56  5.5000000000000E+01  2.5824188426572E+01  8.8777752344438E+01
57  5.6000000000000E+01  2.5257859156218E+01  9.1916889027426E+01
58  5.7000000000000E+01  2.4959222014792E+01  9.4720488584294E+01
59  5.8000000000000E+01  2.4937308141669E+01  9.7175478947220E+01
60  5.9000000000000E+01  2.5199432859416E+01  9.9270808554307E+01
61  6.0000000000000E+01  2.5751137174823E+01  1.0099751975664E+00
62  6.1000000000000E+01  2.6596139197683E+01  1.0234881035913E+00
63  6.2000000000000E+01  2.7736295854841E+01  1.0332008283757E+00
64  6.3000000000000E+01  2.9171575221354E+01  1.0390898084147E+00
65  6.4000000000000E+01  3.0900039731594E+01  1.0411541266358E+00
66  6.5000000000000E+01  3.2917840472322E+01  1.0394156143071E+00
67  6.6000000000000E+01  3.5219222696656E+01  1.0339188184632E+00
68  6.7000000000000E+01  3.7796542632991E+01  1.0247308339399E+00
69  6.8000000000000E+01  4.0640295596789E+01  1.0119409999074E+00
70  6.9000000000000E+01  4.3739155346413E+01  9.9566046159706E+01
71  7.0000000000000E+01  4.7080024556142E+01  9.7602159873782E+01
72  7.1000000000000E+01  5.0648096212084E+01  9.5317732303483E+01
73  7.2000000000000E+01  5.4426925669032E+01  9.2730024783610E+01
74  7.3000000000000E+01  5.8398513039705E+01  8.9858173393958E+01
75  7.4000000000000E+01  6.2543395522011E+01  8.6723081628505E+01
76  7.5000000000000E+01  6.6840749205898E+01  8.3347301704852E+01
77  7.6000000000000E+01  7.1268499839227E+01  7.9754905140536E+01
78  7.7000000000000E+01  7.5803441972363E+01  7.5971343294832E+01
79  7.8000000000000E+01  8.0421365844226E+01  7.2023298643181E+01
80  7.9000000000000E+01  8.5097191318795E+01  6.7938527616109E+01
81  8.0000000000000E+01  8.9805108130915E+01  6.3745695894734E+01
82  8.1000000000000E+01  9.4518721654182E+01  5.9474207110298E+01
83  8.2000000000000E+01  9.9211203361644E+01  5.5154025945613E+01
84  8.3000000000000E+01  1.0385544511301E+00  5.0815496680621E+01
85  8.4000000000000E+01  1.0842421636976E+00  4.6489158262904E+01
86  8.5000000000000E+01  1.1289032341246E+00  4.2205557016200E+01
87  8.6000000000000E+01  1.1722676961321E+00  3.7995058125393E+01
88  8.7000000000000E+01  1.2140691580005E+00  3.3887657055229E+01
89  8.8000000000000E+01  1.2540463974050E+00  2.9912792071382E+01
90  8.9000000000000E+01  1.2919449376701E+00  2.6099159036782E+01
91  9.0000000000000E+01  1.3275185956981E+00  2.2474529652907E+01
92  9.1000000000000E+01  1.3605309919049E+00  1.9065574304982E+01
93  9.2000000000000E+01  1.3907570126448E+00  1.5897690651756E+01
94  9.3000000000000E+01  1.4179842158140E+00  1.2994839075034E+01
95  9.4000000000000E+01  1.4420141705889E+00  1.0379386070572E+01
96  9.5000000000000E+01  1.4626637225901E+00  8.0719566217547E+02
97  9.6000000000000E+01  1.4797661761447E+00  6.0912965496912E+02
98  9.7000000000000E+01  1.4931723857726E+00  4.4541457788917E+02
99  9.8000000000000E+01  1.5027517495188E+00  3.1751233964572E+02
100  9.9000000000000E+01  1.5083930973075E+00  2.2666253152928E+02
101  1.0000000000000E+00  1.5100054680983E+00  1.7387352784045E+02
102  1.0100000000000E+00  1.5075187702807E+00  1.5991498611787E+02
103  1.0200000000000E+00  1.5008843204045E+00  1.8531180483565E+02
104  1.0300000000000E+00  1.4900752561155E+00  2.5033958684013E+02
105  1.0400000000000E+00  1.4750868198956E+00  3.5502164793525E+02
106  1.0500000000000E+00  1.4559365110084E+00  4.9912760030509E+02
107  1.0600000000000E+00  1.4326641038796E+00  6.8217353038799E+02
108  1.0700000000000E+00  1.4053315319521E+00  9.0342378101781E+02
109  1.0800000000000E+00  1.3740226369027E+00  1.1618943373628E+01
110  1.0900000000000E+00  1.3388427840022E+00  1.4563578053733E+01
111  1.1000000000000E+00  1.2999183452057E+00  1.7853499616946E+01
112  1.1100000000000E+00  1.2573960524941E+00  2.1471778427332E+01
113  1.1200000000000E+00  1.2114422246872E+00  2.5399293320778E+01
114  1.1300000000000E+00  1.1622418719480E+00  2.9614841934544E+01
115  1.1400000000000E+00  1.1099976828994E+00  3.4095264878998E+01
116  1.1500000000000E+00  1.0549289001461E+00  3.8815583033711E+01
117  1.1600000000000E+00  9.9727009058763E+01  4.3749147178568E+01
118  1.1700000000000E+00  9.3726981780804E+01  4.8867799062313E+01
119  1.1800000000000E+00  8.7518922440345E+01  5.4142042942160E+01
120  1.1900000000000E+00  8.1130053279618E+01  5.9541226545722E+01
121  1.2000000000000E+00  7.4588547347918E+01  6.5033730359189E+01
122  1.2100000000000E+00  6.7923365043657E+01  7.0587164050163E+01
123  1.2200000000000E+00  6.1164085376288E+01  7.6168568800961E+01
124  1.2300000000000E+00  5.4340732986094E+01  8.1744624285817E+01
125  1.2400000000000E+00  4.7483602007345E+01  8.7281858969477E+01
126  1.2500000000000E+00  4.0623077879391E+01  9.2746862383151E+01
127  1.2600000000000E+00  3.3789458222905E+01  9.8106498019409E+01
128  1.2700000000000E+00  2.7012773921979E+01  1.0332811546071E+00
129  1.2800000000000E+00  2.0322611548809E+01  1.0837976036340E+00
130  1.2900000000000E+00  1.3747938262012E+01  1.1323038092658E+00
131  1.3000000000000E+00  7.3169303153904E+02  1.1785002946997E+00
132  1.3100000000000E+00  1.0568062672291E+02  1.2221005780451E+00
133  1.3200000000000E+00 -5.0063340215587E+02  1.2628330508162E+00
134  1.3300000000000E+00 -1.0847663538895E+01  1.3004427684178E+00
135  1.3400000000000E+00 -1.6443774455687E+01  1.3346931410123E+00
136  1.3500000000000E+00 -2.1772815635082E+01  1.3653675126472E+00
137  1.3600000000000E+00 -2.6814620426434E+01  1.3922706179914E+00
138  1.3700000000000E+00 -3.1550823946761E+01  1.4152299071709E+00
139  1.3800000000000E+00 -3.5964968958263E+01  1.4340967280402E+00
140  1.3900000000000E+00 -4.0042599750857E+01  1.4487473589332E+00
141  1.4000000000000E+00 -4.3771343333814E+01  1.4590838836437E+00
142  1.4100000000000E+00 -4.7140977342231E+01  1.4650349016402E+00
143  1.4200000000000E+00 -5.0143484340207E+01  1.4665560699168E+00
144  1.4300000000000E+00 -5.2773091914412E+01  1.4636304693385E+00
145  1.4400000000000E+00 -5.5026298480029E+01  1.4562687948319E+00
146  1.4500000000000E+00 -5.6901884483420E+01  1.4445093658481E+00
147  1.4600000000000E+00 -5.8400908864111E+01  1.4284179557196E+00
148  1.4700000000000E+00 -5.9526690955330E+01  1.4080874424002E+00
149  1.4800000000000E+00 -6.0284777591362E+01  1.3836372780560E+00
150  1.4900000000000E+00 -6.0682895965845E+01  1.3552127844566E+00
151  1.5000000000000E+00 -6.0730892184795E+01  1.3229842737795E+00
152  1.5100000000000E+00 -6.0440656102868E+01  1.2871460023167E+00
153  1.5200000000000E+00 -5.9826032805369E+01  1.2479149618003E+00
154  1.5300000000000E+00 -5.8902721217576E+01  1.2055295145351E+00
155  1.5400000000000E+00 -5.7688160657903E+01  1.1602478825711E+00
156  1.5500000000000E+00 -5.6201405714643E+01  1.1123464958738E+00
157  1.5600000000000E+00 -5.4462990616779E+01  1.0621182135447E+00
158  1.5700000000000E+00 -5.2494783523552E+01  1.0098704251844E+00
159  1.5800000000000E+00 -5.0319831951076E+01  9.5592304398033E+01
160  1.5900000000000E+00 -4.7962200332707E+01  9.0060641332140E+01
161  1.6000000000000E+00 -4.5446801455596E+01  8.4425917501269E+01
162  1.6100000000000E+00 -4.2799216375897E+01  7.8722580066676E+01
163  1.6200000000000E+00 -4.0045517878373E+01  7.2985445979871E+01
164  1.6300000000000E+00 -3.7212098847983E+01  6.7249533313726E+01
165  1.6400000000000E+00 -3.4325499198531E+01  6.1549877559674E+01
166  1.6500000000000E+00 -3.1412239152826E+01  5.5921369371766E+01
167  1.6600000000000E+00 -2.8498644742459E+01  5.0398551853543E+01
168  1.6700000000000E+00 -2.5610668271501E+01  4.5015380532158E+01
169  1.6800000000000E+00 -2.2773715332027E+01  3.9805009449271E+01
170  1.6900000000000E+00 -2.0012475127300E+01  3.4799581701078E+01
171  1.7000000000000E+00 -1.7350755164710E+01  3.0030022605449E+01
172  1.7100000000000E+00 -1.4811321893670E+01  2.5525841933967E+01
173  1.7200000000000E+00 -1.2415748175500E+01  2.1314944370200E+01
174  1.7300000000000E+00 -1.0184268417213E+01  1.7423449842529E+01
175  1.7400000000000E+00 -8.1356425419348E+02  1.3875525053204E+01
176  1.7500000000000E+00 -6.2870293988644E+02  1.0693226925688E+01
177  1.7600000000000E+00 -4.6546334116054E+02  7.8976432712113E+02
178  1.7700000000000E+00 -3.2510038376905E+02  5.5043937399244E+02
179  1.7800000000000E+00 -2.0830553172063E+02  3.5203513659741E+02
180  1.7900000000000E+00 -1.1653062429452E+02  1.9659333042578E+02
181  1.8000000000000E+00 -5.2474929676693E+03  8.8328471488789E+03
182  1.8100000000000E+00 -1.5820849504540E+03  2.6468553616762E+03
183  1.8200000000000E+00 -5.5375016641605E+06 -7.5230026598829E+06
184  1.8300000000000E+00  2.8328728687674E+04 -4.8576021099582E+04
185  1.8400000000000E+00  4.1657665631059E+05 -7.0990446419004E+05
186  1.8500000000000E+00 -9.1701243377848E+05  1.5619611068445E+04
187  1.8600000000000E+00 -4.0119905869108E+05  6.8248640631144E+05
188  1.8700000000000E+00  1.4038650704673E+05 -2.4035745339654E+05
189  1.8800000000000E+00  1.1818354508459E+05 -2.0217036414511E+05
190  1.8900000000000E+00  6.2471754126431E+08 -7.6245985736470E+08
191  1.9000000000000E+00  9.3835535047692E+08 -1.1452508364566E+07
192  1.9100000000000E+00  0.0000000000000E+00  0.0000000000000E+00
193  1.9200000000000E+00  0.0000000000000E+00  0.0000000000000E+00
194  1.9300000000000E+00  0.0000000000000E+00  0.0000000000000E+00
195  1.9400000000000E+00  0.0000000000000E+00  0.0000000000000E+00
196  1.9500000000000E+00  0.0000000000000E+00  0.0000000000000E+00
197  1.9600000000000E+00  0.0000000000000E+00  0.0000000000000E+00
198  1.9700000000000E+00  0.0000000000000E+00  0.0000000000000E+00
199  1.9800000000000E+00  0.0000000000000E+00  0.0000000000000E+00
200  1.9900000000000E+00  0.0000000000000E+00  0.0000000000000E+00
201  2.0000000000000E+00  0.0000000000000E+00  0.0000000000000E+00
202  2.0100000000000E+00  0.0000000000000E+00  0.0000000000000E+00
203  2.0200000000000E+00  0.0000000000000E+00  0.0000000000000E+00
204  2.0300000000000E+00  0.0000000000000E+00  0.0000000000000E+00
205  2.0400000000000E+00  0.0000000000000E+00  0.0000000000000E+00
206  2.0500000000000E+00  0.0000000000000E+00  0.0000000000000E+00
207  2.0600000000000E+00  0.0000000000000E+00  0.0000000000000E+00
208  2.0700000000000E+00  0.0000000000000E+00  0.0000000000000E+00
209  2.0800000000000E+00  0.0000000000000E+00  0.0000000000000E+00
210  2.0900000000000E+00  0.0000000000000E+00  0.0000000000000E+00
211  2.1000000000000E+00  0.0000000000000E+00  0.0000000000000E+00
212  2.1100000000000E+00  0.0000000000000E+00  0.0000000000000E+00
213  2.1200000000000E+00  0.0000000000000E+00  0.0000000000000E+00
214  2.1300000000000E+00  0.0000000000000E+00  0.0000000000000E+00
215  2.1400000000000E+00  0.0000000000000E+00  0.0000000000000E+00
216  2.1500000000000E+00  0.0000000000000E+00  0.0000000000000E+00
217  2.1600000000000E+00  0.0000000000000E+00  0.0000000000000E+00
218  2.1700000000000E+00  0.0000000000000E+00  0.0000000000000E+00
219  2.1800000000000E+00  0.0000000000000E+00  0.0000000000000E+00
220  2.1900000000000E+00  0.0000000000000E+00  0.0000000000000E+00
221  2.2000000000000E+00  0.0000000000000E+00  0.0000000000000E+00
222  2.2100000000000E+00  0.0000000000000E+00  0.0000000000000E+00
223  2.2200000000000E+00  0.0000000000000E+00  0.0000000000000E+00
224  2.2300000000000E+00  0.0000000000000E+00  0.0000000000000E+00
225  2.2400000000000E+00  0.0000000000000E+00  0.0000000000000E+00
226  2.2500000000000E+00  0.0000000000000E+00  0.0000000000000E+00
227  2.2600000000000E+00  0.0000000000000E+00  0.0000000000000E+00
228  2.2700000000000E+00  0.0000000000000E+00  0.0000000000000E+00
229  2.2800000000000E+00  0.0000000000000E+00  0.0000000000000E+00
230  2.2900000000000E+00  0.0000000000000E+00  0.0000000000000E+00
231  2.3000000000000E+00  0.0000000000000E+00  0.0000000000000E+00
232  2.3100000000000E+00  0.0000000000000E+00  0.0000000000000E+00
233  2.3200000000000E+00  0.0000000000000E+00  0.0000000000000E+00
234  2.3300000000000E+00  0.0000000000000E+00  0.0000000000000E+00
235  2.3400000000000E+00  0.0000000000000E+00  0.0000000000000E+00
236  2.3500000000000E+00  0.0000000000000E+00  0.0000000000000E+00
237  2.3600000000000E+00  0.0000000000000E+00  0.0000000000000E+00
238  2.3700000000000E+00  0.0000000000000E+00  0.0000000000000E+00
239  2.3800000000000E+00  0.0000000000000E+00  0.0000000000000E+00
240  2.3900000000000E+00  0.0000000000000E+00  0.0000000000000E+00
241  2.4000000000000E+00  0.0000000000000E+00  0.0000000000000E+00
242  2.4100000000000E+00  0.0000000000000E+00  0.0000000000000E+00
243  2.4200000000000E+00  0.0000000000000E+00  0.0000000000000E+00
244  2.4300000000000E+00  0.0000000000000E+00  0.0000000000000E+00
245  2.4400000000000E+00  0.0000000000000E+00  0.0000000000000E+00
246  2.4500000000000E+00  0.0000000000000E+00  0.0000000000000E+00
247  2.4600000000000E+00  0.0000000000000E+00  0.0000000000000E+00
248  2.4700000000000E+00  0.0000000000000E+00  0.0000000000000E+00
249  2.4800000000000E+00  0.0000000000000E+00  0.0000000000000E+00
250  2.4900000000000E+00  0.0000000000000E+00  0.0000000000000E+00
251  2.5000000000000E+00  0.0000000000000E+00  0.0000000000000E+00
252  2.5100000000000E+00  0.0000000000000E+00  0.0000000000000E+00
253  2.5200000000000E+00  0.0000000000000E+00  0.0000000000000E+00
254  2.5300000000000E+00  0.0000000000000E+00  0.0000000000000E+00
255  2.5400000000000E+00  0.0000000000000E+00  0.0000000000000E+00
256  2.5500000000000E+00  0.0000000000000E+00  0.0000000000000E+00
257  2.5600000000000E+00  0.0000000000000E+00  0.0000000000000E+00
258  2.5700000000000E+00  0.0000000000000E+00  0.0000000000000E+00
259  2.5800000000000E+00  0.0000000000000E+00  0.0000000000000E+00
260  2.5900000000000E+00  0.0000000000000E+00  0.0000000000000E+00
261  2.6000000000000E+00  0.0000000000000E+00  0.0000000000000E+00
262  2.6100000000000E+00  0.0000000000000E+00  0.0000000000000E+00
263  2.6200000000000E+00  0.0000000000000E+00  0.0000000000000E+00
264  2.6300000000000E+00  0.0000000000000E+00  0.0000000000000E+00
265  2.6400000000000E+00  0.0000000000000E+00  0.0000000000000E+00
266  2.6500000000000E+00  0.0000000000000E+00  0.0000000000000E+00
267  2.6600000000000E+00  0.0000000000000E+00  0.0000000000000E+00
268  2.6700000000000E+00  0.0000000000000E+00  0.0000000000000E+00
269  2.6800000000000E+00  0.0000000000000E+00  0.0000000000000E+00
270  2.6900000000000E+00  0.0000000000000E+00  0.0000000000000E+00
271  2.7000000000000E+00  0.0000000000000E+00  0.0000000000000E+00
272  2.7100000000000E+00  0.0000000000000E+00  0.0000000000000E+00
273  2.7200000000000E+00  0.0000000000000E+00  0.0000000000000E+00
274  2.7300000000000E+00  0.0000000000000E+00  0.0000000000000E+00
275  2.7400000000000E+00  0.0000000000000E+00  0.0000000000000E+00
276  2.7500000000000E+00  0.0000000000000E+00  0.0000000000000E+00
277  2.7600000000000E+00  0.0000000000000E+00  0.0000000000000E+00
278  2.7700000000000E+00  0.0000000000000E+00  0.0000000000000E+00
279  2.7800000000000E+00  0.0000000000000E+00  0.0000000000000E+00
280  2.7900000000000E+00  0.0000000000000E+00  0.0000000000000E+00
281  2.8000000000000E+00  0.0000000000000E+00  0.0000000000000E+00
282  2.8100000000000E+00  0.0000000000000E+00  0.0000000000000E+00
283  2.8200000000000E+00  0.0000000000000E+00  0.0000000000000E+00
284  2.8300000000000E+00  0.0000000000000E+00  0.0000000000000E+00
285  2.8400000000000E+00  0.0000000000000E+00  0.0000000000000E+00
286  2.8500000000000E+00  0.0000000000000E+00  0.0000000000000E+00
287  2.8600000000000E+00  0.0000000000000E+00  0.0000000000000E+00
288  2.8700000000000E+00  0.0000000000000E+00  0.0000000000000E+00
289  2.8800000000000E+00  0.0000000000000E+00  0.0000000000000E+00
290  2.8900000000000E+00  0.0000000000000E+00  0.0000000000000E+00
291  2.9000000000000E+00  0.0000000000000E+00  0.0000000000000E+00
292  2.9100000000000E+00  0.0000000000000E+00  0.0000000000000E+00
293  2.9200000000000E+00  0.0000000000000E+00  0.0000000000000E+00
294  2.9300000000000E+00  0.0000000000000E+00  0.0000000000000E+00
295  2.9400000000000E+00  0.0000000000000E+00  0.0000000000000E+00
296  2.9500000000000E+00  0.0000000000000E+00  0.0000000000000E+00
297  2.9600000000000E+00  0.0000000000000E+00  0.0000000000000E+00
298  2.9700000000000E+00  0.0000000000000E+00  0.0000000000000E+00
299  2.9800000000000E+00  0.0000000000000E+00  0.0000000000000E+00
300  2.9900000000000E+00  0.0000000000000E+00  0.0000000000000E+00
301  3.0000000000000E+00  0.0000000000000E+00  0.0000000000000E+00
302  3.0100000000000E+00  0.0000000000000E+00  0.0000000000000E+00
303  3.0200000000000E+00  0.0000000000000E+00  0.0000000000000E+00
304  3.0300000000000E+00  0.0000000000000E+00  0.0000000000000E+00
305  3.0400000000000E+00  0.0000000000000E+00  0.0000000000000E+00
306  3.0500000000000E+00  0.0000000000000E+00  0.0000000000000E+00
307  3.0600000000000E+00  0.0000000000000E+00  0.0000000000000E+00
308  3.0700000000000E+00  0.0000000000000E+00  0.0000000000000E+00
309  3.0800000000000E+00  0.0000000000000E+00  0.0000000000000E+00
310  3.0900000000000E+00  0.0000000000000E+00  0.0000000000000E+00
311  3.1000000000000E+00  0.0000000000000E+00  0.0000000000000E+00
312  3.1100000000000E+00  0.0000000000000E+00  0.0000000000000E+00
313  3.1200000000000E+00  0.0000000000000E+00  0.0000000000000E+00
314  3.1300000000000E+00  0.0000000000000E+00  0.0000000000000E+00
315  3.1400000000000E+00  0.0000000000000E+00  0.0000000000000E+00
316  3.1500000000000E+00  0.0000000000000E+00  0.0000000000000E+00
317  3.1600000000000E+00  0.0000000000000E+00  0.0000000000000E+00
318  3.1700000000000E+00  0.0000000000000E+00  0.0000000000000E+00
319  3.1800000000000E+00  0.0000000000000E+00  0.0000000000000E+00
320  3.1900000000000E+00  0.0000000000000E+00  0.0000000000000E+00
321  3.2000000000000E+00  0.0000000000000E+00  0.0000000000000E+00
322  3.2100000000000E+00  0.0000000000000E+00  0.0000000000000E+00
323  3.2200000000000E+00  0.0000000000000E+00  0.0000000000000E+00
324  3.2300000000000E+00  0.0000000000000E+00  0.0000000000000E+00
325  3.2400000000000E+00  0.0000000000000E+00  0.0000000000000E+00
326  3.2500000000000E+00  0.0000000000000E+00  0.0000000000000E+00
327  3.2600000000000E+00  0.0000000000000E+00  0.0000000000000E+00
328  3.2700000000000E+00  0.0000000000000E+00  0.0000000000000E+00
329  3.2800000000000E+00  0.0000000000000E+00  0.0000000000000E+00
330  3.2900000000000E+00  0.0000000000000E+00  0.0000000000000E+00
331  3.3000000000000E+00  0.0000000000000E+00  0.0000000000000E+00
332  3.3100000000000E+00  0.0000000000000E+00  0.0000000000000E+00
333  3.3200000000000E+00  0.0000000000000E+00  0.0000000000000E+00
334  3.3300000000000E+00  0.0000000000000E+00  0.0000000000000E+00
335  3.3400000000000E+00  0.0000000000000E+00  0.0000000000000E+00
336  3.3500000000000E+00  0.0000000000000E+00  0.0000000000000E+00
337  3.3600000000000E+00  0.0000000000000E+00  0.0000000000000E+00
338  3.3700000000000E+00  0.0000000000000E+00  0.0000000000000E+00
339  3.3800000000000E+00  0.0000000000000E+00  0.0000000000000E+00
340  3.3900000000000E+00  0.0000000000000E+00  0.0000000000000E+00
341  3.4000000000000E+00  0.0000000000000E+00  0.0000000000000E+00
342  3.4100000000000E+00  0.0000000000000E+00  0.0000000000000E+00
343  3.4200000000000E+00  0.0000000000000E+00  0.0000000000000E+00
344  3.4300000000000E+00  0.0000000000000E+00  0.0000000000000E+00
345  3.4400000000000E+00  0.0000000000000E+00  0.0000000000000E+00
346  3.4500000000000E+00  0.0000000000000E+00  0.0000000000000E+00
347  3.4600000000000E+00  0.0000000000000E+00  0.0000000000000E+00
348  3.4700000000000E+00  0.0000000000000E+00  0.0000000000000E+00
349  3.4800000000000E+00  0.0000000000000E+00  0.0000000000000E+00
350  3.4900000000000E+00  0.0000000000000E+00  0.0000000000000E+00
351  3.5000000000000E+00  0.0000000000000E+00  0.0000000000000E+00
352  3.5100000000000E+00  0.0000000000000E+00  0.0000000000000E+00
353  3.5200000000000E+00  0.0000000000000E+00  0.0000000000000E+00
354  3.5300000000000E+00  0.0000000000000E+00  0.0000000000000E+00
355  3.5400000000000E+00  0.0000000000000E+00  0.0000000000000E+00
356  3.5500000000000E+00  0.0000000000000E+00  0.0000000000000E+00
357  3.5600000000000E+00  0.0000000000000E+00  0.0000000000000E+00
358  3.5700000000000E+00  0.0000000000000E+00  0.0000000000000E+00
359  3.5800000000000E+00  0.0000000000000E+00  0.0000000000000E+00
360  3.5900000000000E+00  0.0000000000000E+00  0.0000000000000E+00
361  3.6000000000000E+00  0.0000000000000E+00  0.0000000000000E+00
362  3.6100000000000E+00  0.0000000000000E+00  0.0000000000000E+00
363  3.6200000000000E+00  0.0000000000000E+00  0.0000000000000E+00
364  3.6300000000000E+00  0.0000000000000E+00  0.0000000000000E+00
365  3.6400000000000E+00  0.0000000000000E+00  0.0000000000000E+00
366  3.6500000000000E+00  0.0000000000000E+00  0.0000000000000E+00
367  3.6600000000000E+00  0.0000000000000E+00  0.0000000000000E+00
368  3.6700000000000E+00  0.0000000000000E+00  0.0000000000000E+00
369  3.6800000000000E+00  0.0000000000000E+00  0.0000000000000E+00
370  3.6900000000000E+00  0.0000000000000E+00  0.0000000000000E+00
371  3.7000000000000E+00  0.0000000000000E+00  0.0000000000000E+00
372  3.7100000000000E+00  0.0000000000000E+00  0.0000000000000E+00
373  3.7200000000000E+00  0.0000000000000E+00  0.0000000000000E+00
374  3.7300000000000E+00  0.0000000000000E+00  0.0000000000000E+00
375  3.7400000000000E+00  0.0000000000000E+00  0.0000000000000E+00
376  3.7500000000000E+00  0.0000000000000E+00  0.0000000000000E+00
377  3.7600000000000E+00  0.0000000000000E+00  0.0000000000000E+00
378  3.7700000000000E+00  0.0000000000000E+00  0.0000000000000E+00
379  3.7800000000000E+00  0.0000000000000E+00  0.0000000000000E+00
380  3.7900000000000E+00  0.0000000000000E+00  0.0000000000000E+00
381  3.8000000000000E+00  0.0000000000000E+00  0.0000000000000E+00
382  3.8100000000000E+00  0.0000000000000E+00  0.0000000000000E+00
383  3.8200000000000E+00  0.0000000000000E+00  0.0000000000000E+00
384  3.8300000000000E+00  0.0000000000000E+00  0.0000000000000E+00
385  3.8400000000000E+00  0.0000000000000E+00  0.0000000000000E+00
386  3.8500000000000E+00  0.0000000000000E+00  0.0000000000000E+00
387  3.8600000000000E+00  0.0000000000000E+00  0.0000000000000E+00
388  3.8700000000000E+00  0.0000000000000E+00  0.0000000000000E+00
389  3.8800000000000E+00  0.0000000000000E+00  0.0000000000000E+00
390  3.8900000000000E+00  0.0000000000000E+00  0.0000000000000E+00
391  3.9000000000000E+00  0.0000000000000E+00  0.0000000000000E+00
392  3.9100000000000E+00  0.0000000000000E+00  0.0000000000000E+00
393  3.9200000000000E+00  0.0000000000000E+00  0.0000000000000E+00
394  3.9300000000000E+00  0.0000000000000E+00  0.0000000000000E+00
395  3.9400000000000E+00  0.0000000000000E+00  0.0000000000000E+00
396  3.9500000000000E+00  0.0000000000000E+00  0.0000000000000E+00
397  3.9600000000000E+00  0.0000000000000E+00  0.0000000000000E+00
398  3.9700000000000E+00  0.0000000000000E+00  0.0000000000000E+00
399  3.9800000000000E+00  0.0000000000000E+00  0.0000000000000E+00
400  3.9900000000000E+00  0.0000000000000E+00  0.0000000000000E+00
401  4.0000000000000E+00  0.0000000000000E+00  0.0000000000000E+00
402  4.0100000000000E+00  0.0000000000000E+00  0.0000000000000E+00
403  4.0200000000000E+00  0.0000000000000E+00  0.0000000000000E+00
404  4.0300000000000E+00  0.0000000000000E+00  0.0000000000000E+00
405  4.0400000000000E+00  0.0000000000000E+00  0.0000000000000E+00
406  4.0500000000000E+00  0.0000000000000E+00  0.0000000000000E+00
407  4.0600000000000E+00  0.0000000000000E+00  0.0000000000000E+00
408  4.0700000000000E+00  0.0000000000000E+00  0.0000000000000E+00
409  4.0800000000000E+00  0.0000000000000E+00  0.0000000000000E+00
410  4.0900000000000E+00  0.0000000000000E+00  0.0000000000000E+00
411  4.1000000000000E+00  0.0000000000000E+00  0.0000000000000E+00
412  4.1100000000000E+00  0.0000000000000E+00  0.0000000000000E+00
413  4.1200000000000E+00  0.0000000000000E+00  0.0000000000000E+00
414  4.1300000000000E+00  0.0000000000000E+00  0.0000000000000E+00
415  4.1400000000000E+00  0.0000000000000E+00  0.0000000000000E+00
416  4.1500000000000E+00  0.0000000000000E+00  0.0000000000000E+00
417  4.1600000000000E+00  0.0000000000000E+00  0.0000000000000E+00
418  4.1700000000000E+00  0.0000000000000E+00  0.0000000000000E+00
419  4.1800000000000E+00  0.0000000000000E+00  0.0000000000000E+00
420  4.1900000000000E+00  0.0000000000000E+00  0.0000000000000E+00
421  4.2000000000000E+00  0.0000000000000E+00  0.0000000000000E+00
422  4.2100000000000E+00  0.0000000000000E+00  0.0000000000000E+00
423  4.2200000000000E+00  0.0000000000000E+00  0.0000000000000E+00
424  4.2300000000000E+00  0.0000000000000E+00  0.0000000000000E+00
425  4.2400000000000E+00  0.0000000000000E+00  0.0000000000000E+00
426  4.2500000000000E+00  0.0000000000000E+00  0.0000000000000E+00
427  4.2600000000000E+00  0.0000000000000E+00  0.0000000000000E+00
428  4.2700000000000E+00  0.0000000000000E+00  0.0000000000000E+00
429  4.2800000000000E+00  0.0000000000000E+00  0.0000000000000E+00
430  4.2900000000000E+00  0.0000000000000E+00  0.0000000000000E+00
431  4.3000000000000E+00  0.0000000000000E+00  0.0000000000000E+00
432  4.3100000000000E+00  0.0000000000000E+00  0.0000000000000E+00
433  4.3200000000000E+00  0.0000000000000E+00  0.0000000000000E+00
434  4.3300000000000E+00  0.0000000000000E+00  0.0000000000000E+00
435  4.3400000000000E+00  0.0000000000000E+00  0.0000000000000E+00
436  4.3500000000000E+00  0.0000000000000E+00  0.0000000000000E+00
437  4.3600000000000E+00  0.0000000000000E+00  0.0000000000000E+00
438  4.3700000000000E+00  0.0000000000000E+00  0.0000000000000E+00
439  4.3800000000000E+00  0.0000000000000E+00  0.0000000000000E+00
440  4.3900000000000E+00  0.0000000000000E+00  0.0000000000000E+00
441  4.4000000000000E+00  0.0000000000000E+00  0.0000000000000E+00
442  4.4100000000000E+00  0.0000000000000E+00  0.0000000000000E+00
443  4.4200000000000E+00  0.0000000000000E+00  0.0000000000000E+00