La    ONCVPSP-3.2.3.1  r_core=   2.11664   1.60878   1.85636   1.66739
57.0000     11.0000      170510    zatom,zion,pspd
8      11   3     4   600     0    pspcod,pspxc,lmax,lloc,mmax,r2well
5.99000000  5.00000000  0.00000000    rchrg fchrg qchrg
2     2     2     2     0    nproj
1     1           extension_switch
0                         6.6314881368211E+00  6.2165675021225E-01
1  0.0000000000000E+00 -4.4599324233729E-12  4.0733721951014E-11
2  1.0000000000000E-02  3.1547770251134E-02 -1.0965551927865E-02
3  2.0000000000000E-02  6.3078511408816E-02 -2.1890717046078E-02
4  3.0000000000000E-02  9.4575198745880E-02 -3.2735341472387E-02
5  4.0000000000000E-02  1.2602081618916E-01 -4.3459735555838E-02
6  5.0000000000000E-02  1.5739836045120E-01 -5.4024901944008E-02
7  6.0000000000000E-02  1.8869084493075E-01 -6.4392758821004E-02
8  7.0000000000000E-02  2.1988130331036E-01 -7.4526356754470E-02
9  8.0000000000000E-02  2.5095279278366E-01 -8.4390087630558E-02
10  9.0000000000000E-02  2.8188839685066E-01 -9.3949884206538E-02
11  1.0000000000000E-01  3.1267122762567E-01 -1.0317340887072E-01
12  1.1000000000000E-01  3.4328442761035E-01 -1.1203023026870E-01
13  1.2000000000000E-01  3.7371117089232E-01 -1.2049198653331E-01
14  1.3000000000000E-01  4.0393466373945E-01 -1.2853253394192E-01
15  1.4000000000000E-01  4.3393814456967E-01 -1.3612807991973E-01
16  1.5000000000000E-01  4.6370488328701E-01 -1.4325729940943E-01
17  1.6000000000000E-01  4.9321817998576E-01 -1.4990143373652E-01
18  1.7000000000000E-01  5.2246136303654E-01 -1.5604437121517E-01
19  1.8000000000000E-01  5.5141778658019E-01 -1.6167270885974E-01
20  1.9000000000000E-01  5.8007082746797E-01 -1.6677579469357E-01
21  2.0000000000000E-01  6.0840388169915E-01 -1.7134575027611E-01
22  2.1000000000000E-01  6.3640036041983E-01 -1.7537747320350E-01
23  2.2000000000000E-01  6.6404368555961E-01 -1.7886861947349E-01
24  2.3000000000000E-01  6.9131728519516E-01 -1.8181956574411E-01
25  2.4000000000000E-01  7.1820458874180E-01 -1.8423335165420E-01
26  2.5000000000000E-01  7.4468902208635E-01 -1.8611560251371E-01
27  2.6000000000000E-01  7.7075400278515E-01 -1.8747443280979E-01
28  2.7000000000000E-01  7.9638293546220E-01 -1.8832033111200E-01
29  2.8000000000000E-01  8.2155920755146E-01 -1.8866602709442E-01
30  2.9000000000000E-01  8.4626618553651E-01 -1.8852634152337E-01
31  3.0000000000000E-01  8.7048721184802E-01 -1.8791802018648E-01
32  3.1000000000000E-01  8.9420560258601E-01 -1.8685955286032E-01
33  3.2000000000000E-01  9.1740464623883E-01 -1.8537097852928E-01
34  3.3000000000000E-01  9.4006760357443E-01 -1.8347367817719E-01
35  3.4000000000000E-01  9.6217770888144E-01 -1.8119015657389E-01
36  3.5000000000000E-01  9.8371817273802E-01 -1.7854381457118E-01
37  3.6000000000000E-01  1.0046721864850E+00 -1.7555871350599E-01
38  3.7000000000000E-01  1.0250229285768E+00 -1.7225933338086E-01
39  3.8000000000000E-01  1.0447535729779E+00 -1.6867032655499E-01
40  3.9000000000000E-01  1.0638472997669E+00 -1.6481626872913E-01
41  4.0000000000000E-01  1.0822873081000E+00 -1.6072140904767E-01
42  4.1000000000000E-01  1.1000568316750E+00 -1.5640942116738E-01
43  4.2000000000000E-01  1.1171391568244E+00 -1.5190315715669E-01
44  4.3000000000000E-01  1.1335176433513E+00 -1.4722440609070E-01
45  4.4000000000000E-01  1.1491757482034E+00 -1.4239365919438E-01
46  4.5000000000000E-01  1.1640970520649E+00 -1.3742988336168E-01
47  4.6000000000000E-01  1.1782652889200E+00 -1.3235030483850E-01
48  4.7000000000000E-01  1.1916643786264E+00 -1.2717020480595E-01
49  4.8000000000000E-01  1.2042784625066E+00 -1.2190272853405E-01
50  4.9000000000000E-01  1.2160919419431E+00 -1.1655870969821E-01
51  5.0000000000000E-01  1.2270895199369E+00 -1.1114651135944E-01
52  5.1000000000000E-01  1.2372562455572E+00 -1.0567188500613E-01
53  5.2000000000000E-01  1.2465775611873E+00 -1.0013784894078E-01
54  5.3000000000000E-01  1.2550393524345E+00 -9.4544587169643E-02
55  5.4000000000000E-01  1.2626280005499E+00 -8.8889369817680E-02
56  5.5000000000000E-01  1.2693304371654E+00 -8.3166495946567E-02
57  5.6000000000000E-01  1.2751342011324E+00 -7.7367259501556E-02
58  5.7000000000000E-01  1.2800274972108E+00 -7.1479938952016E-02
59  5.8000000000000E-01  1.2839992563302E+00 -6.5489811026499E-02
60  5.9000000000000E-01  1.2870391971178E+00 -5.9379188771435E-02
61  6.0000000000000E-01  1.2891378883563E+00 -5.3127483990665E-02
62  6.1000000000000E-01  1.2902868120141E+00 -4.6711293946220E-02
63  6.2000000000000E-01  1.2904784264623E+00 -4.0104512026197E-02
64  6.3000000000000E-01  1.2897062294751E+00 -3.3278461909879E-02
65  6.4000000000000E-01  1.2879648205866E+00 -2.6202054588175E-02
66  6.5000000000000E-01  1.2852499623671E+00 -1.8841967429369E-02
67  6.6000000000000E-01  1.2815586401617E+00 -1.1162844316953E-02
68  6.7000000000000E-01  1.2768891198312E+00 -3.1275157302454E-03
69  6.8000000000000E-01  1.2712410030250E+00  5.3027625081766E-03
70  6.9000000000000E-01  1.2646152795164E+00  1.4168053232821E-02
71  7.0000000000000E-01  1.2570143761318E+00  2.3509466223734E-02
72  7.1000000000000E-01  1.2484422018127E+00  3.3368872438094E-02
73  7.2000000000000E-01  1.2389041883609E+00  4.3788605939707E-02
74  7.3000000000000E-01  1.2284073264340E+00  5.4811155367722E-02
75  7.4000000000000E-01  1.2169601963771E+00  6.6478846856161E-02
76  7.5000000000000E-01  1.2045729935050E+00  7.8833520369134E-02
77  7.6000000000000E-01  1.1912575474787E+00  9.1916201455256E-02
78  7.7000000000000E-01  1.1770273354534E+00  1.0576677044282E-01
79  7.8000000000000E-01  1.1618974887192E+00  1.2042363110115E-01
80  7.9000000000000E-01  1.1458847925947E+00  1.3592338077734E-01
81  8.0000000000000E-01  1.1290076793880E+00  1.5230048398474E-01
82  8.1000000000000E-01  1.1112862142857E+00  1.6958695137035E-01
83  8.2000000000000E-01  1.0927420740934E+00  1.8781202592105E-01
84  8.3000000000000E-01  1.0733985188023E+00  2.0700187818729E-01
85  8.4000000000000E-01  1.0532803560264E+00  2.2717931220568E-01
86  8.5000000000000E-01  1.0324138984111E+00  2.4836348369238E-01
87  8.6000000000000E-01  1.0108269141846E+00  2.7056963195676E-01
88  8.7000000000000E-01  9.8854857108747E-01  2.9380882685319E-01
89  8.8000000000000E-01  9.6560937398046E-01  3.1808773194811E-01
90  8.9000000000000E-01  9.4204109649976E-01  3.4340838493309E-01
91  9.0000000000000E-01  9.1787670718989E-01  3.6976799616384E-01
92  9.1000000000000E-01  8.9315029060793E-01  3.9715876605306E-01
93  9.2000000000000E-01  8.6789696395118E-01  4.2556772189353E-01
94  9.3000000000000E-01  8.4215278981533E-01  4.5497657454044E-01
95  9.4000000000000E-01  8.1595468573992E-01  4.8536159523991E-01
96  9.5000000000000E-01  7.8934033124248E-01  5.1669351275811E-01
97  9.6000000000000E-01  7.6234807307979E-01  5.4893743084502E-01
98  9.7000000000000E-01  7.3501682950496E-01  5.8205276595950E-01
99  9.8000000000000E-01  7.0738599431072E-01  6.1599320509238E-01
100  9.9000000000000E-01  6.7949534146147E-01  6.5070668345459E-01
101  1.0000000000000E+00  6.5138493111930E-01  6.8613538174792E-01
102  1.0100000000000E+00  6.2309501786103E-01  7.2221574271151E-01
103  1.0200000000000E+00  5.9466596186394E-01  7.5887850663715E-01
104  1.0300000000000E+00  5.6613814380550E-01  7.9604876557698E-01
105  1.0400000000000E+00  5.3755188418257E-01  8.3364603601698E-01
106  1.0500000000000E+00  5.0894736769544E-01  8.7158434988194E-01
107  1.0600000000000E+00  4.8036457327653E-01  9.0977236384732E-01
108  1.0700000000000E+00  4.5184321026284E-01  9.4811348707653E-01
109  1.0800000000000E+00  4.2342266111061E-01  9.8650602768722E-01
110  1.0900000000000E+00  3.9514193096146E-01  1.0248433584184E+00
111  1.1000000000000E+00  3.6703960423304E-01  1.0630141022286E+00
112  1.1100000000000E+00  3.3915380829144E-01  1.1009023387808E+00
113  1.1200000000000E+00  3.1152218411463E-01  1.1383878330497E+00
114  1.1300000000000E+00  2.8418186371794E-01  1.1753462875519E+00
115  1.1400000000000E+00  2.5716945395904E-01  1.2116496199888E+00
116  1.1500000000000E+00  2.3052102616412E-01  1.2471662684110E+00
117  1.1600000000000E+00  2.0427211085630E-01  1.2817615262975E+00
118  1.1700000000000E+00  1.7845769671454E-01  1.3152979101967E+00
119  1.1800000000000E+00  1.5311223271164E-01  1.3476355628733E+00
120  1.1900000000000E+00  1.2826963220515E-01  1.3786326951567E+00
121  1.2000000000000E+00  1.0396327758928E-01  1.4081460698658E+00
122  1.2100000000000E+00  8.0226024022474E-02  1.4360315313205E+00
123  1.2200000000000E+00  5.7090200512493E-02  1.4621445841370E+00
124  1.2300000000000E+00  3.4587606568298E-02  1.4863410249276E+00
125  1.2400000000000E+00  1.2749502533297E-02  1.5084776305252E+00
126  1.2500000000000E+00 -8.3934084180648E-03  1.5284129062742E+00
127  1.2600000000000E+00 -2.8811008674632E-02  1.5460078974867E+00
128  1.2700000000000E+00 -4.8473807033231E-02  1.5611270668856E+00
129  1.2800000000000E+00 -6.7352994116928E-02  1.5736392405602E+00
130  1.2900000000000E+00 -8.5420514360168E-02  1.5834186236701E+00
131  1.3000000000000E+00 -1.0264915649667E-01  1.5903458867782E+00
132  1.3100000000000E+00 -1.1901266445597E-01  1.5943093229556E+00
133  1.3200000000000E+00 -1.3448587010209E-01  1.5952060730932E+00
134  1.3300000000000E+00 -1.4904484930221E-01  1.5929434171889E+00
135  1.3400000000000E+00 -1.6266710246354E-01  1.5874401271117E+00
136  1.3500000000000E+00 -1.7533175972799E-01  1.5786278719253E+00
137  1.3600000000000E+00 -1.8701981165990E-01  1.5664526697879E+00
138  1.3700000000000E+00 -1.9771436463021E-01  1.5508763725639E+00
139  1.3800000000000E+00 -2.0740091958161E-01  1.5318781673689E+00
140  1.3900000000000E+00 -2.1606767354534E-01  1.5094560818518E+00
141  1.4000000000000E+00 -2.2370583975732E-01  1.4836284648453E+00
142  1.4100000000000E+00 -2.3030998409010E-01  1.4544354221441E+00
143  1.4200000000000E+00 -2.3587837307921E-01  1.4219401764700E+00
144  1.4300000000000E+00 -2.4041332610934E-01  1.3862303099197E+00
145  1.4400000000000E+00 -2.4392156804410E-01  1.3474188620252E+00
146  1.4500000000000E+00 -2.4641456950937E-01  1.3056452198164E+00
147  1.4600000000000E+00 -2.4790886841532E-01  1.2610757621074E+00
148  1.4700000000000E+00 -2.4842635902254E-01  1.2139041907219E+00
149  1.4800000000000E+00 -2.4799453347559E-01  1.1643514764350E+00
150  1.4900000000000E+00 -2.4664666514065E-01  1.1126653642243E+00
151  1.5000000000000E+00 -2.4442190627240E-01  1.0591193170160E+00
152  1.5100000000000E+00 -2.4136529199638E-01  1.0040108527200E+00
153  1.5200000000000E+00 -2.3752761419812E-01  9.4765911908612E-01
154  1.5300000000000E+00 -2.3296515039429E-01  8.9040163427786E-01
155  1.5400000000000E+00 -2.2773921154885E-01  8.3259003925330E-01
156  1.5500000000000E+00 -2.2191547811569E-01  7.7458472894752E-01
157  1.5600000000000E+00 -2.1556307828117E-01  7.1674812007836E-01
158  1.5700000000000E+00 -2.0875345808229E-01  6.5943707180036E-01
159  1.5800000000000E+00 -2.0155859293403E-01  6.0299135396930E-01
160  1.5900000000000E+00 -1.9404988298925E-01  5.4772755548260E-01
161  1.6000000000000E+00 -1.8629478253203E-01  4.9391883305101E-01
162  1.6100000000000E+00 -1.7835324496817E-01  4.4177273661106E-01
163  1.6200000000000E+00 -1.7027867641214E-01  3.9144520565364E-01
164  1.6300000000000E+00 -1.6211788227339E-01  3.4304683023389E-01
165  1.6400000000000E+00 -1.5391401305254E-01  2.9666573040569E-01
166  1.6500000000000E+00 -1.4570931996982E-01  2.5238982623269E-01
167  1.6600000000000E+00 -1.3754370791390E-01  2.1029651561286E-01
168  1.6700000000000E+00 -1.2945447399275E-01  1.7045065534449E-01
169  1.6800000000000E+00 -1.2147655624233E-01  1.3290730778201E-01
170  1.6900000000000E+00 -1.1364228352675E-01  9.7710164660643E-02
171  1.7000000000000E+00 -1.0598136672037E-01  6.4891861441995E-02
172  1.7100000000000E+00 -9.8520829711803E-02  3.4473765459835E-02
173  1.7200000000000E+00 -9.1284970460161E-02  6.4659376207554E-03
174  1.7300000000000E+00 -8.4295337651749E-02 -1.9132842306947E-02
175  1.7400000000000E+00 -7.7570724071018E-02 -4.2334982083886E-02
176  1.7500000000000E+00 -7.1127175422728E-02 -6.3163920540544E-02
177  1.7600000000000E+00 -6.4978015847041E-02 -8.1653903004458E-02
178  1.7700000000000E+00 -5.9133888295419E-02 -9.7849696491420E-02
179  1.7800000000000E+00 -5.3602811221688E-02 -1.1180623853026E-01
180  1.7900000000000E+00 -4.8390249139111E-02 -1.2358823007503E-01
181  1.8000000000000E+00 -4.3499198666060E-02 -1.3326966571255E-01
182  1.8100000000000E+00 -3.8930287274449E-02 -1.4093331299141E-01
183  1.8200000000000E+00 -3.4681886033922E-02 -1.4667013552081E-01
184  1.8300000000000E+00 -3.0750233837172E-02 -1.5057867047583E-01
185  1.8400000000000E+00 -2.7129573603057E-02 -1.5276435854133E-01
186  1.8500000000000E+00 -2.3812298547551E-02 -1.5333883436617E-01
187  1.8600000000000E+00 -2.0789108071887E-02 -1.5241917953605E-01
188  1.8700000000000E+00 -1.8049172049454E-02 -1.5012714324473E-01
189  1.8800000000000E+00 -1.5580302186298E-02 -1.4658833630156E-01
190  1.8900000000000E+00 -1.3369129785071E-02 -1.4193140140168E-01
191  1.9000000000000E+00 -1.1401288026675E-02 -1.3628716758837E-01
192  1.9100000000000E+00 -9.6615982683642E-03 -1.2978779116221E-01
193  1.9200000000000E+00 -8.1342586984625E-03 -1.2256588982506E-01
194  1.9300000000000E+00 -6.8030339295526E-03 -1.1475367655005E-01
195  1.9400000000000E+00 -5.6514442619467E-03 -1.0648209843272E-01
196  1.9500000000000E+00 -4.6629539968968E-03 -9.7879982619587E-02
197  1.9600000000000E+00 -3.8211576749071E-03 -8.9073194101688E-02
198  1.9700000000000E+00 -3.1099623889889E-03 -8.0183813678197E-02
199  1.9800000000000E+00 -2.5137630915121E-03 -7.1329350086793E-02
200  1.9900000000000E+00 -2.0176119031988E-03 -6.2621981361488E-02
201  2.0000000000000E+00 -1.6073818271514E-03 -5.4167821197701E-02
202  2.0100000000000E+00 -1.2699225262009E-03 -4.6066222690054E-02
203  2.0200000000000E+00 -9.9320493230325E-04 -3.8409133450632E-02
204  2.0300000000000E+00 -7.6645482519954E-04 -3.1280501181835E-02
205  2.0400000000000E+00 -5.8027615264554E-04 -2.4755725877213E-02
206  2.0500000000000E+00 -4.2687720177945E-04 -1.8905890689478E-02
207  2.0600000000000E+00 -2.9971019723550E-04 -1.3778610728638E-02
208  2.0700000000000E+00 -1.9400273482797E-04 -9.4070411211593E-03
209  2.0800000000000E+00 -1.0706250371434E-04 -5.8394348372945E-03
210  2.0900000000000E+00 -3.8303858482101E-05 -3.1634944129534E-03
211  2.1000000000000E+00  1.2772009387583E-05 -1.4242213930504E-03
212  2.1100000000000E+00  4.1803327477513E-05 -4.6109277995652E-04
213  2.1200000000000E+00  4.5194631878854E-05 -4.5594355945945E-05
214  2.1300000000000E+00  2.6861270739672E-05  5.4775049158573E-05
215  2.1400000000000E+00  3.9688402068870E-06  1.2971855160253E-05
216  2.1500000000000E+00 -5.9150779372241E-06 -2.3637372677145E-05
217  2.1600000000000E+00 -4.5229324693971E-06 -2.0523795589801E-05
218  2.1700000000000E+00  4.4711887660921E-07  1.2576046756399E-06
219  2.1800000000000E+00  1.3600793275106E-06  4.2186590885540E-06
220  2.1900000000000E+00  5.4236343749259E-07  1.8065389211083E-06
221  2.2000000000000E+00 -9.9829408875894E-08  2.9723600336334E-07
222  2.2100000000000E+00 -1.2265549354493E-07  3.6519928448314E-07
223  2.2200000000000E+00 -1.3006377147583E-09  3.8725698219749E-09
224  2.2300000000000E+00  0.0000000000000E+00  0.0000000000000E+00
225  2.2400000000000E+00  0.0000000000000E+00  0.0000000000000E+00
226  2.2500000000000E+00  0.0000000000000E+00  0.0000000000000E+00
227  2.2600000000000E+00  0.0000000000000E+00  0.0000000000000E+00
228  2.2700000000000E+00  0.0000000000000E+00  0.0000000000000E+00
229  2.2800000000000E+00  0.0000000000000E+00  0.0000000000000E+00
230  2.2900000000000E+00  0.0000000000000E+00  0.0000000000000E+00
231  2.3000000000000E+00  0.0000000000000E+00  0.0000000000000E+00
232  2.3100000000000E+00  0.0000000000000E+00  0.0000000000000E+00
233  2.3200000000000E+00  0.0000000000000E+00  0.0000000000000E+00
234  2.3300000000000E+00  0.0000000000000E+00  0.0000000000000E+00
235  2.3400000000000E+00  0.0000000000000E+00  0.0000000000000E+00
236  2.3500000000000E+00  0.0000000000000E+00  0.0000000000000E+00
237  2.3600000000000E+00  0.0000000000000E+00  0.0000000000000E+00
238  2.3700000000000E+00  0.0000000000000E+00  0.0000000000000E+00
239  2.3800000000000E+00  0.0000000000000E+00  0.0000000000000E+00
240  2.3900000000000E+00  0.0000000000000E+00  0.0000000000000E+00
241  2.4000000000000E+00  0.0000000000000E+00  0.0000000000000E+00
242  2.4100000000000E+00  0.0000000000000E+00  0.0000000000000E+00
243  2.4200000000000E+00  0.0000000000000E+00  0.0000000000000E+00
244  2.4300000000000E+00  0.0000000000000E+00  0.0000000000000E+00
245  2.4400000000000E+00  0.0000000000000E+00  0.0000000000000E+00
246  2.4500000000000E+00  0.0000000000000E+00  0.0000000000000E+00
247  2.4600000000000E+00  0.0000000000000E+00  0.0000000000000E+00
248  2.4700000000000E+00  0.0000000000000E+00  0.0000000000000E+00
249  2.4800000000000E+00  0.0000000000000E+00  0.0000000000000E+00
250  2.4900000000000E+00  0.0000000000000E+00  0.0000000000000E+00
251  2.5000000000000E+00  0.0000000000000E+00  0.0000000000000E+00
252  2.5100000000000E+00  0.0000000000000E+00  0.0000000000000E+00
253  2.5200000000000E+00  0.0000000000000E+00  0.0000000000000E+00
254  2.5300000000000E+00  0.0000000000000E+00  0.0000000000000E+00
255  2.5400000000000E+00  0.0000000000000E+00  0.0000000000000E+00
256  2.5500000000000E+00  0.0000000000000E+00  0.0000000000000E+00
257  2.5600000000000E+00  0.0000000000000E+00  0.0000000000000E+00
258  2.5700000000000E+00  0.0000000000000E+00  0.0000000000000E+00
259  2.5800000000000E+00  0.0000000000000E+00  0.0000000000000E+00
260  2.5900000000000E+00  0.0000000000000E+00  0.0000000000000E+00
261  2.6000000000000E+00  0.0000000000000E+00  0.0000000000000E+00
262  2.6100000000000E+00  0.0000000000000E+00  0.0000000000000E+00
263  2.6200000000000E+00  0.0000000000000E+00  0.0000000000000E+00
264  2.6300000000000E+00  0.0000000000000E+00  0.0000000000000E+00
265  2.6400000000000E+00  0.0000000000000E+00  0.0000000000000E+00
266  2.6500000000000E+00  0.0000000000000E+00  0.0000000000000E+00
267  2.6600000000000E+00  0.0000000000000E+00  0.0000000000000E+00
268  2.6700000000000E+00  0.0000000000000E+00  0.0000000000000E+00
269  2.6800000000000E+00  0.0000000000000E+00  0.0000000000000E+00
270  2.6900000000000E+00  0.0000000000000E+00  0.0000000000000E+00
271  2.7000000000000E+00  0.0000000000000E+00  0.0000000000000E+00
272  2.7100000000000E+00  0.0000000000000E+00  0.0000000000000E+00
273  2.7200000000000E+00  0.0000000000000E+00  0.0000000000000E+00
274  2.7300000000000E+00  0.0000000000000E+00  0.0000000000000E+00
275  2.7400000000000E+00  0.0000000000000E+00  0.0000000000000E+00
276  2.7500000000000E+00  0.0000000000000E+00  0.0000000000000E+00
277  2.7600000000000E+00  0.0000000000000E+00  0.0000000000000E+00
278  2.7700000000000E+00  0.0000000000000E+00  0.0000000000000E+00
279  2.7800000000000E+00  0.0000000000000E+00  0.0000000000000E+00
280  2.7900000000000E+00  0.0000000000000E+00  0.0000000000000E+00
281  2.8000000000000E+00  0.0000000000000E+00  0.0000000000000E+00
282  2.8100000000000E+00  0.0000000000000E+00  0.0000000000000E+00
283  2.8200000000000E+00  0.0000000000000E+00  0.0000000000000E+00
284  2.8300000000000E+00  0.0000000000000E+00  0.0000000000000E+00
285  2.8400000000000E+00  0.0000000000000E+00  0.0000000000000E+00
286  2.8500000000000E+00  0.0000000000000E+00  0.0000000000000E+00
287  2.8600000000000E+00  0.0000000000000E+00  0.0000000000000E+00
288  2.8700000000000E+00  0.0000000000000E+00  0.0000000000000E+00
289  2.8800000000000E+00  0.0000000000000E+00  0.0000000000000E+00
290  2.8900000000000E+00  0.0000000000000E+00  0.0000000000000E+00
291  2.9000000000000E+00  0.0000000000000E+00  0.0000000000000E+00
292  2.9100000000000E+00  0.0000000000000E+00  0.0000000000000E+00
293  2.9200000000000E+00  0.0000000000000E+00  0.0000000000000E+00
294  2.9300000000000E+00  0.0000000000000E+00  0.0000000000000E+00
295  2.9400000000000E+00  0.0000000000000E+00  0.0000000000000E+00
296  2.9500000000000E+00  0.0000000000000E+00  0.0000000000000E+00
297  2.9600000000000E+00  0.0000000000000E+00  0.0000000000000E+00
298  2.9700000000000E+00  0.0000000000000E+00  0.0000000000000E+00
299  2.9800000000000E+00  0.0000000000000E+00  0.0000000000000E+00
300  2.9900000000000E+00  0.0000000000000E+00  0.0000000000000E+00
301  3.0000000000000E+00  0.0000000000000E+00  0.0000000000000E+00
302  3.0100000000000E+00  0.0000000000000E+00  0.0000000000000E+00
303  3.0200000000000E+00  0.0000000000000E+00  0.0000000000000E+00
304  3.0300000000000E+00  0.0000000000000E+00  0.0000000000000E+00
305  3.0400000000000E+00  0.0000000000000E+00  0.0000000000000E+00
306  3.0500000000000E+00  0.0000000000000E+00  0.0000000000000E+00
307  3.0600000000000E+00  0.0000000000000E+00  0.0000000000000E+00
308  3.0700000000000E+00  0.0000000000000E+00  0.0000000000000E+00
309  3.0800000000000E+00  0.0000000000000E+00  0.0000000000000E+00
310  3.0900000000000E+00  0.0000000000000E+00  0.0000000000000E+00
311  3.1000000000000E+00  0.0000000000000E+00  0.0000000000000E+00
312  3.1100000000000E+00  0.0000000000000E+00  0.0000000000000E+00
313  3.1200000000000E+00  0.0000000000000E+00  0.0000000000000E+00
314  3.1300000000000E+00  0.0000000000000E+00  0.0000000000000E+00
315  3.1400000000000E+00  0.0000000000000E+00  0.0000000000000E+00
316  3.1500000000000E+00  0.0000000000000E+00  0.0000000000000E+00
317  3.1600000000000E+00  0.0000000000000E+00  0.0000000000000E+00
318  3.1700000000000E+00  0.0000000000000E+00  0.0000000000000E+00
319  3.1800000000000E+00  0.0000000000000E+00  0.0000000000000E+00
320  3.1900000000000E+00  0.0000000000000E+00  0.0000000000000E+00
321  3.2000000000000E+00  0.0000000000000E+00  0.0000000000000E+00
322  3.2100000000000E+00  0.0000000000000E+00  0.0000000000000E+00
323  3.2200000000000E+00  0.0000000000000E+00  0.0000000000000E+00
324  3.2300000000000E+00  0.0000000000000E+00  0.0000000000000E+00
325  3.2400000000000E+00  0.0000000000000E+00  0.0000000000000E+00
326  3.2500000000000E+00  0.0000000000000E+00  0.0000000000000E+00
327  3.2600000000000E+00  0.0000000000000E+00  0.0000000000000E+00
328  3.2700000000000E+00  0.0000000000000E+00  0.0000000000000E+00
329  3.2800000000000E+00  0.0000000000000E+00  0.0000000000000E+00
330  3.2900000000000E+00  0.0000000000000E+00  0.0000000000000E+00
331  3.3000000000000E+00  0.0000000000000E+00  0.0000000000000E+00
332  3.3100000000000E+00  0.0000000000000E+00  0.0000000000000E+00
333  3.3200000000000E+00  0.0000000000000E+00  0.0000000000000E+00
334  3.3300000000000E+00  0.0000000000000E+00  0.0000000000000E+00
335  3.3400000000000E+00  0.0000000000000E+00  0.0000000000000E+00
336  3.3500000000000E+00  0.0000000000000E+00  0.0000000000000E+00
337  3.3600000000000E+00  0.0000000000000E+00  0.0000000000000E+00
338  3.3700000000000E+00  0.0000000000000E+00  0.0000000000000E+00
339  3.3800000000000E+00  0.0000000000000E+00  0.0000000000000E+00
340  3.3900000000000E+00  0.0000000000000E+00  0.0000000000000E+00
341  3.4000000000000E+00  0.0000000000000E+00  0.0000000000000E+00
342  3.4100000000000E+00  0.0000000000000E+00  0.0000000000000E+00
343  3.4200000000000E+00  0.0000000000000E+00  0.0000000000000E+00
344  3.4300000000000E+00  0.0000000000000E+00  0.0000000000000E+00
345  3.4400000000000E+00  0.0000000000000E+00  0.0000000000000E+00
346  3.4500000000000E+00  0.0000000000000E+00  0.0000000000000E+00
347  3.4600000000000E+00  0.0000000000000E+00  0.0000000000000E+00
348  3.4700000000000E+00  0.0000000000000E+00  0.0000000000000E+00
349  3.4800000000000E+00  0.0000000000000E+00  0.0000000000000E+00
350  3.4900000000000E+00  0.0000000000000E+00  0.0000000000000E+00
351  3.5000000000000E+00  0.0000000000000E+00  0.0000000000000E+00
352  3.5100000000000E+00  0.0000000000000E+00  0.0000000000000E+00
353  3.5200000000000E+00  0.0000000000000E+00  0.0000000000000E+00
354  3.5300000000000E+00  0.0000000000000E+00  0.0000000000000E+00
355  3.5400000000000E+00  0.0000000000000E+00  0.0000000000000E+00
356  3.5500000000000E+00  0.0000000000000E+00  0.0000000000000E+00
357  3.5600000000000E+00  0.0000000000000E+00  0.0000000000000E+00
358  3.5700000000000E+00  0.0000000000000E+00  0.0000000000000E+00
359  3.5800000000000E+00  0.0000000000000E+00  0.0000000000000E+00
360  3.5900000000000E+00  0.0000000000000E+00  0.0000000000000E+00
361  3.6000000000000E+00  0.0000000000000E+00  0.0000000000000E+00
362  3.6100000000000E+00  0.0000000000000E+00  0.0000000000000E+00
363  3.6200000000000E+00  0.0000000000000E+00  0.0000000000000E+00
364  3.6300000000000E+00  0.0000000000000E+00  0.0000000000000E+00
365  3.6400000000000E+00  0.0000000000000E+00  0.0000000000000E+00
366  3.6500000000000E+00  0.0000000000000E+00  0.0000000000000E+00
367  3.6600000000000E+00  0.0000000000000E+00  0.0000000000000E+00
368  3.6700000000000E+00  0.0000000000000E+00  0.0000000000000E+00
369  3.6800000000000E+00  0.0000000000000E+00  0.0000000000000E+00
370  3.6900000000000E+00  0.0000000000000E+00  0.0000000000000E+00
371  3.7000000000000E+00  0.0000000000000E+00  0.0000000000000E+00
372  3.7100000000000E+00  0.0000000000000E+00  0.0000000000000E+00
373  3.7200000000000E+00  0.0000000000000E+00  0.0000000000000E+00
374  3.7300000000000E+00  0.0000000000000E+00  0.0000000000000E+00
375  3.7400000000000E+00  0.0000000000000E+00  0.0000000000000E+00
376  3.7500000000000E+00  0.0000000000000E+00  0.0000000000000E+00
377  3.7600000000000E+00  0.0000000000000E+00  0.0000000000000E+00
378  3.7700000000000E+00  0.0000000000000E+00  0.0000000000000E+00
379  3.7800000000000E+00  0.0000000000000E+00  0.0000000000000E+00
380  3.7900000000000E+00  0.0000000000000E+00  0.0000000000000E+00
381  3.8000000000000E+00  0.0000000000000E+00  0.0000000000000E+00
382  3.8100000000000E+00  0.0000000000000E+00  0.0000000000000E+00
383  3.8200000000000E+00  0.0000000000000E+00  0.0000000000000E+00
384  3.8300000000000E+00  0.0000000000000E+00  0.0000000000000E+00
385  3.8400000000000E+00  0.0000000000000E+00  0.0000000000000E+00
386  3.8500000000000E+00  0.0000000000000E+00  0.0000000000000E+00
387  3.8600000000000E+00  0.0000000000000E+00  0.0000000000000E+00
388  3.8700000000000E+00  0.0000000000000E+00  0.0000000000000E+00
389  3.8800000000000E+00  0.0000000000000E+00  0.0000000000000E+00
390  3.8900000000000E+00  0.0000000000000E+00  0.0000000000000E+00
391  3.9000000000000E+00  0.0000000000000E+00  0.0000000000000E+00
392  3.9100000000000E+00  0.0000000000000E+00  0.0000000000000E+00
393  3.9200000000000E+00  0.0000000000000E+00  0.0000000000000E+00
394  3.9300000000000E+00  0.0000000000000E+00  0.0000000000000E+00
395  3.9400000000000E+00  0.0000000000000E+00  0.0000000000000E+00
396  3.9500000000000E+00  0.0000000000000E+00  0.0000000000000E+00
397  3.9600000000000E+00  0.0000000000000E+00  0.0000000000000E+00
398  3.9700000000000E+00  0.0000000000000E+00  0.0000000000000E+00
399  3.9800000000000E+00  0.0000000000000E+00  0.0000000000000E+00
400  3.9900000000000E+00  0.0000000000000E+00  0.0000000000000E+00
401  4.0000000000000E+00  0.0000000000000E+00  0.0000000000000E+00
402  4.0100000000000E+00  0.0000000000000E+00  0.0000000000000E+00
403  4.0200000000000E+00  0.0000000000000E+00  0.0000000000000E+00
404  4.0300000000000E+00  0.0000000000000E+00  0.0000000000000E+00
405  4.0400000000000E+00  0.0000000000000E+00  0.0000000000000E+00
406  4.0500000000000E+00  0.0000000000000E+00  0.0000000000000E+00
407  4.0600000000000E+00  0.0000000000000E+00  0.0000000000000E+00
408  4.0700000000000E+00  0.0000000000000E+00  0.0000000000000E+00
409  4.0800000000000E+00  0.0000000000000E+00  0.0000000000000E+00
410  4.0900000000000E+00  0.0000000000000E+00  0.0000000000000E+00
411  4.1000000000000E+00  0.0000000000000E+00  0.0000000000000E+00
412  4.1100000000000E+00  0.0000000000000E+00  0.0000000000000E+00
413  4.1200000000000E+00  0.0000000000000E+00  0.0000000000000E+00
414  4.1300000000000E+00  0.0000000000000E+00  0.0000000000000E+00
415  4.1400000000000E+00  0.0000000000000E+00  0.0000000000000E+00
416  4.1500000000000E+00  0.0000000000000E+00  0.0000000000000E+00
417  4.1600000000000E+00  0.0000000000000E+00  0.0000000000000E+00
418  4.1700000000000E+00  0.0000000000000E+00  0.0000000000000E+00
419  4.1800000000000E+00  0.0000000000000E+00  0.0000000000000E+00
420  4.1900000000000E+00  0.0000000000000E+00  0.0000000000000E+00
421  4.2000000000000E+00  0.0000000000000E+00  0.0000000000000E+00
422  4.2100000000000E+00  0.0000000000000E+00  0.0000000000000E+00
423  4.2200000000000E+00  0.0000000000000E+00  0.0000000000000E+00
424  4.2300000000000E+00  0.0000000000000E+00  0.0000000000000E+00
425  4.2400000000000E+00  0.0000000000000E+00  0.0000000000000E+00
426  4.2500000000000E+00  0.0000000000000E+00  0.0000000000000E+00
427  4.2600000000000E+00  0.0000000000000E+00  0.0000000000000E+00
428  4.2700000000000E+00  0.0000000000000E+00  0.0000000000000E+00
429  4.2800000000000E+00  0.0000000000000E+00  0.0000000000000E+00
430  4.2900000000000E+00  0.0000000000000E+00  0.0000000000000E+00
431  4.3000000000000E+00  0.0000000000000E+00  0.0000000000000E+00
432  4.3100000000000E+00  0.0000000000000E+00  0.0000000000000E+00
433  4.3200000000000E+00  0.0000000000000E+00  0.0000000000000E+00
434  4.3300000000000E+00  0.0000000000000E+00  0.0000000000000E+00
435  4.3400000000000E+00  0.0000000000000E+00  0.0000000000000E+00
436  4.3500000000000E+00  0.0000000000000E+00  0.0000000000000E+00
437  4.3600000000000E+00  0.0000000000000E+00  0.0000000000000E+00
438  4.3700000000000E+00  0.0000000000000E+00  0.0000000000000E+00
439  4.3800000000000E+00  0.0000000000000E+00  0.0000000000000E+00
440  4.3900000000000E+00  0.0000000000000E+00  0.0000000000000E+00
441  4.4000000000000E+00  0.0000000000000E+00  0.0000000000000E+00
442  4.4100000000000E+00  0.0000000000000E+00  0.0000000000000E+00
443  4.4200000000000E+00  0.0000000000000E+00  0.0000000000000E+00