Lu    ONCVPSP-3.2.3.1  r_core=   1.56315   1.60089   1.45518   1.86943
71.0000     25.0000      170524    zatom,zion,pspd
8      11   3     4   600     0    pspcod,pspxc,lmax,lloc,mmax,r2well
5.99000000  4.00000000  0.00000000    rchrg fchrg qchrg
2     2     2     2     0    nproj
1     1           extension_switch
0                         1.2890684950788E+01  1.3337648488582E+00
1  0.0000000000000E+00 -1.2342454835945E-10  6.4341715289018E-10
2  1.0000000000000E-02  4.7262389375740E-02 -2.0616615968234E-02
3  2.0000000000000E-02  9.4483052397756E-02 -4.1142939275954E-02
4  3.0000000000000E-02  1.4162031363793E-01 -6.1489486306022E-02
5  4.0000000000000E-02  1.8863259788477E-01 -8.1568379507204E-02
6  5.0000000000000E-02  2.3547847619730E-01 -1.0129412054077E-01
7  6.0000000000000E-02  2.8211670718242E-01 -1.2058432802572E-01
8  7.0000000000000E-02  3.2850627205083E-01 -1.3936042884652E-01
9  8.0000000000000E-02  3.7460640212958E-01 -1.5754829263074E-01
10  9.0000000000000E-02  4.2037659766065E-01 -1.7507879979351E-01
11  1.0000000000000E-01  4.6577663689151E-01 -1.9188833447195E-01
12  1.1000000000000E-01  5.1076657466341E-01 -2.0791919472438E-01
13  1.2000000000000E-01  5.5530672992337E-01 -2.2311991353361E-01
14  1.3000000000000E-01  5.9935766182304E-01 -2.3744548541594E-01
15  1.4000000000000E-01  6.4288013431912E-01 -2.5085749478328E-01
16  1.5000000000000E-01  6.8583506945148E-01 -2.6332414361706E-01
17  1.6000000000000E-01  7.2818348974325E-01 -2.7482017747293E-01
18  1.7000000000000E-01  7.6988645043761E-01 -2.8532671032517E-01
19  1.8000000000000E-01  8.1090496255526E-01 -2.9483095026093E-01
20  1.9000000000000E-01  8.5119990801973E-01 -3.0332582952742E-01
21  2.0000000000000E-01  8.9073194835131E-01 -3.1080954390037E-01
22  2.1000000000000E-01  9.2946142867021E-01 -3.1728500776012E-01
23  2.2000000000000E-01  9.6734827897094E-01 -3.2275923261368E-01
24  2.3000000000000E-01  1.0043519148303E+00 -3.2724263806809E-01
25  2.4000000000000E-01  1.0404311398854E+00 -3.3074830542508E-01
26  2.5000000000000E-01  1.0755440525647E+00 -3.3329118511216E-01
27  2.6000000000000E-01  1.1096479596670E+00 -3.3488727007526E-01
28  2.7000000000000E-01  1.1426992994640E+00 -3.3555274801898E-01
29  2.8000000000000E-01  1.1746535770425E+00 -3.3530314597952E-01
30  2.9000000000000E-01  1.2054653146045E+00 -3.3415248114094E-01
31  3.0000000000000E-01  1.2350880194066E+00 -3.3211243205044E-01
32  3.1000000000000E-01  1.2634741719365E+00 -3.2919154444328E-01
33  3.2000000000000E-01  1.2905752368063E+00 -3.2539448575109E-01
34  3.3000000000000E-01  1.3163416986739E+00 -3.2072136203343E-01
35  3.4000000000000E-01  1.3407231252976E+00 -3.1516711054439E-01
36  3.5000000000000E-01  1.3636682595837E+00 -3.0872098042383E-01
37  3.6000000000000E-01  1.3851251421979E+00 -3.0136611309327E-01
38  3.7000000000000E-01  1.4050412659906E+00 -2.9307923284614E-01
39  3.8000000000000E-01  1.4233637631279E+00 -2.8383045686106E-01
40  3.9000000000000E-01  1.4400396254340E+00 -2.7358323244739E-01
41  4.0000000000000E-01  1.4550159580357E+00 -2.6229440776946E-01
42  4.1000000000000E-01  1.4682402659652E+00 -2.4991444060526E-01
43  4.2000000000000E-01  1.4796607729219E+00 -2.3638774789723E-01
44  4.3000000000000E-01  1.4892267709302E+00 -2.2165319696671E-01
45  4.4000000000000E-01  1.4968889991558E+00 -2.0564473731123E-01
46  4.5000000000000E-01  1.5026000496709E+00 -1.8829216991108E-01
47  4.6000000000000E-01  1.5063147974908E+00 -1.6952204896001E-01
48  4.7000000000000E-01  1.5079908517440E+00 -1.4925870893281E-01
49  4.8000000000000E-01  1.5075890244035E+00 -1.2742540793378E-01
50  4.9000000000000E-01  1.5050738125875E+00 -1.0394557636362E-01
51  5.0000000000000E-01  1.5004138900513E+00 -7.8744158120557E-02
52  5.1000000000000E-01  1.4935826031472E+00 -5.1749029844972E-02
53  5.2000000000000E-01  1.4845584662143E+00 -2.2892482145851E-02
54  5.3000000000000E-01  1.4733256511051E+00  7.8872546607918E-03
55  5.4000000000000E-01  1.4598744653425E+00  4.0644458995091E-02
56  5.5000000000000E-01  1.4442018132516E+00  7.5424360352255E-02
57  5.6000000000000E-01  1.4263116343173E+00  1.1226159604665E-01
58  5.7000000000000E-01  1.4062153129923E+00  1.5117870342723E-01
59  5.8000000000000E-01  1.3839320542194E+00  1.9218466893400E-01
60  5.9000000000000E-01  1.3594892190383E+00  2.3527355540462E-01
61  6.0000000000000E-01  1.3329226148282E+00  2.8042322880701E-01
62  6.1000000000000E-01  1.3042767349808E+00  3.2759420506807E-01
63  6.2000000000000E-01  1.2736049431207E+00  3.7672863688093E-01
64  6.3000000000000E-01  1.2409695973700E+00  4.2774945931571E-01
65  6.4000000000000E-01  1.2064421106104E+00  4.8055971173278E-01
66  6.5000000000000E-01  1.1701029432065E+00  5.3504205190809E-01
67  6.6000000000000E-01  1.1320415252271E+00  5.9105847645281E-01
68  6.7000000000000E-01  1.0923561058273E+00  6.4845025955185E-01
69  6.8000000000000E-01  1.0511535281270E+00  7.0703811977381E-01
70  6.9000000000000E-01  1.0085489286395E+00  7.6662262225235E-01
71  7.0000000000000E-01  9.6466536104563E-01  8.2698482093844E-01
72  7.1000000000000E-01  9.1963334489389E-01  8.8788714286486E-01
73  7.2000000000000E-01  8.7359034059200E-01  9.4907451353498E-01
74  7.3000000000000E-01  8.2668015286331E-01  1.0102757196370E+00
75  7.4000000000000E-01  7.7905226564232E-01  1.0712050023430E+00
76  7.5000000000000E-01  7.3086111217456E-01  1.1315638715301E+00
77  7.6000000000000E-01  6.8226528486535E-01  1.1910431283513E+00
78  7.7000000000000E-01  6.3342669016401E-01  1.2493250807810E+00
79  7.8000000000000E-01  5.8450965448021E-01  1.3060859340549E+00
80  7.9000000000000E-01  5.3567998778978E-01  1.3609983353772E+00
81  8.0000000000000E-01  4.8710401219321E-01  1.4137340499003E+00
82  8.1000000000000E-01  4.3894756323115E-01  1.4639667428425E+00
83  8.2000000000000E-01  3.9137497223063E-01  1.5113748407087E+00
84  8.3000000000000E-01  3.4454803834618E-01  1.5556444429682E+00
85  8.4000000000000E-01  2.9862499926515E-01  1.5964722542291E+00
86  8.5000000000000E-01  2.5375950976128E-01  1.6335685059633E+00
87  8.6000000000000E-01  2.1009963739991E-01  1.6666598361980E+00
88  8.7000000000000E-01  1.6778688472000E-01  1.6954920953078E+00
89  8.8000000000000E-01  1.2695524713927E-01  1.7198330461313E+00
90  8.9000000000000E-01  8.7730315648416E-02  1.7394749270999E+00
91  9.0000000000000E-01  5.0228433079396E-02  1.7542368479097E+00
92  9.1000000000000E-01  1.4555912352238E-02  1.7639669884778E+00
93  9.2000000000000E-01 -1.9191675372837E-02  1.7685445735057E+00
94  9.3000000000000E-01 -5.0930135281017E-02  1.7678815968965E+00
95  9.4000000000000E-01 -8.0587199527071E-02  1.7619242725369E+00
96  9.5000000000000E-01 -1.0810298793776E-01  1.7506541905214E+00
97  9.6000000000000E-01 -1.3343037364482E-01  1.7340891607520E+00
98  9.7000000000000E-01 -1.5653524937849E-01  1.7122837289499E+00
99  9.8000000000000E-01 -1.7739669108230E-01  1.6853293534252E+00
100  9.9000000000000E-01 -1.9600701650938E-01  1.6533542345271E+00
101  1.0000000000000E+00 -2.1237173742443E-01  1.6165227921536E+00
102  1.0100000000000E+00 -2.2650940513700E-01  1.5750347906677E+00
103  1.0200000000000E+00 -2.3845135009448E-01  1.5291241141851E+00
104  1.0300000000000E+00 -2.4824131732812E-01  1.4790571990549E+00
105  1.0400000000000E+00 -2.5593500057142E-01  1.4251311340674E+00
106  1.0500000000000E+00 -2.6159947891087E-01  1.3676714427020E+00
107  1.0600000000000E+00 -2.6531256072041E-01  1.3070295649604E+00
108  1.0700000000000E+00 -2.6716204064848E-01  1.2435800600223E+00
109  1.0800000000000E+00 -2.6724487622647E-01  1.1777175538646E+00
110  1.0900000000000E+00 -2.6566629146588E-01  1.1098534588695E+00
111  1.1000000000000E+00 -2.6253881555047E-01  1.0404124951202E+00
112  1.1100000000000E+00 -2.5798126525307E-01  9.6982904495808E-01
113  1.1200000000000E+00 -2.5211768035639E-01  8.9854337470084E-01
114  1.1300000000000E+00 -2.4507622166986E-01  8.2699775851305E-01
115  1.1400000000000E+00 -2.3698804156959E-01  7.5563254057224E-01
116  1.1500000000000E+00 -2.2798613715899E-01  6.8488217223862E-01
117  1.1600000000000E+00 -2.1820419625621E-01  6.1517126122975E-01
118  1.1700000000000E+00 -2.0777544633582E-01  5.4691066942440E-01
119  1.1800000000000E+00 -1.9683151631239E-01  4.8049369490965E-01
120  1.1900000000000E+00 -1.8550132096721E-01  4.1629237350560E-01
121  1.2000000000000E+00 -1.7390997721536E-01  3.5465393258742E-01
122  1.2100000000000E+00 -1.6217776093812E-01  2.9589742818538E-01
123  1.2200000000000E+00 -1.5041911260387E-01  2.4031059437077E-01
124  1.2300000000000E+00 -1.3874169918105E-01  1.8814693113279E-01
125  1.2400000000000E+00 -1.2724553884777E-01  1.3962305309321E-01
126  1.2500000000000E+00 -1.1602219427864E-01  9.4916318621372E-02
127  1.2600000000000E+00 -1.0515403965233E-01  5.4162756445237E-02
128  1.2700000000000E+00 -9.4713602985586E-02  1.7455290708038E-02
129  1.2800000000000E+00 -8.4762990729931E-02 -1.5157703723002E-02
130  1.2900000000000E+00 -7.5353416031146E-02 -4.3673423561693E-02
131  1.3000000000000E+00 -6.6524794102398E-02 -6.8135393142344E-02
132  1.3100000000000E+00 -5.8305141310351E-02 -8.8635391673275E-02
133  1.3200000000000E+00 -5.0711422424565E-02 -1.0530787507507E-01
134  1.3300000000000E+00 -4.3750787414755E-02 -1.1832279999959E-01
135  1.3400000000000E+00 -3.7422260828624E-02 -1.2787686084518E-01
136  1.3500000000000E+00 -3.1717479275642E-02 -1.3418996661067E-01
137  1.3600000000000E+00 -2.6621076101273E-02 -1.3750383633065E-01
138  1.3700000000000E+00 -2.2111443398744E-02 -1.3807860351423E-01
139  1.3800000000000E+00 -1.8161428074434E-02 -1.3618990571025E-01
140  1.3900000000000E+00 -1.4739105785681E-02 -1.3212563524354E-01
141  1.4000000000000E+00 -1.1808582419762E-02 -1.2618261536779E-01
142  1.4100000000000E+00 -9.3308239786907E-03 -1.1866318090841E-01
143  1.4200000000000E+00 -7.2645041029929E-03 -1.0987170733652E-01
144  1.4300000000000E+00 -5.5668588953072E-03 -1.0011112788232E-01
145  1.4400000000000E+00 -4.1945397034725E-03 -8.9679474378021E-02
146  1.4500000000000E+00 -3.1044528157905E-03 -7.8866484574882E-02
147  1.4600000000000E+00 -2.2545774328061E-03 -6.7950308711621E-02
148  1.4700000000000E+00 -1.6047533928633E-03 -5.7194346898332E-02
149  1.4800000000000E+00 -1.1174269230621E-03 -4.6844264247759E-02
150  1.4900000000000E+00 -7.5834553516759E-04 -3.7125218288888E-02
151  1.5000000000000E+00 -4.9719732391754E-04 -2.8239313405622E-02
152  1.5100000000000E+00 -3.0818874301317E-04 -2.0364946167855E-02
153  1.5200000000000E+00 -1.7054493189496E-04 -1.3652048119585E-02
154  1.5300000000000E+00 -6.9356789899426E-05 -8.1896361513104E-03
155  1.5400000000000E+00  5.5847122242377E-06 -4.1113552550860E-03
156  1.5500000000000E+00  6.2098741120968E-05 -1.5947366367995E-03
157  1.5600000000000E+00  8.7936132706912E-05 -4.2432100398481E-04
158  1.5700000000000E+00  5.9719712069426E-05 -3.8709531367356E-05
159  1.5800000000000E+00  8.1052403814094E-06  5.3017622661538E-06
160  1.5900000000000E+00 -1.0075046912507E-05 -1.2352520179505E-05
161  1.6000000000000E+00 -1.1663529658027E-06 -1.9056710379162E-06
162  1.6100000000000E+00  2.2140261690009E-06  1.1229556099227E-06
163  1.6200000000000E+00  3.2667625702633E-08  2.2640860483080E-08
164  1.6300000000000E+00 -2.4322388119070E-07  7.0120254119494E-07
165  1.6400000000000E+00  0.0000000000000E+00  0.0000000000000E+00
166  1.6500000000000E+00  0.0000000000000E+00  0.0000000000000E+00
167  1.6600000000000E+00  0.0000000000000E+00  0.0000000000000E+00
168  1.6700000000000E+00  0.0000000000000E+00  0.0000000000000E+00
169  1.6800000000000E+00  0.0000000000000E+00  0.0000000000000E+00
170  1.6900000000000E+00  0.0000000000000E+00  0.0000000000000E+00
171  1.7000000000000E+00  0.0000000000000E+00  0.0000000000000E+00
172  1.7100000000000E+00  0.0000000000000E+00  0.0000000000000E+00
173  1.7200000000000E+00  0.0000000000000E+00  0.0000000000000E+00
174  1.7300000000000E+00  0.0000000000000E+00  0.0000000000000E+00
175  1.7400000000000E+00  0.0000000000000E+00  0.0000000000000E+00
176  1.7500000000000E+00  0.0000000000000E+00  0.0000000000000E+00
177  1.7600000000000E+00  0.0000000000000E+00  0.0000000000000E+00
178  1.7700000000000E+00  0.0000000000000E+00  0.0000000000000E+00
179  1.7800000000000E+00  0.0000000000000E+00  0.0000000000000E+00
180  1.7900000000000E+00  0.0000000000000E+00  0.0000000000000E+00
181  1.8000000000000E+00  0.0000000000000E+00  0.0000000000000E+00
182  1.8100000000000E+00  0.0000000000000E+00  0.0000000000000E+00
183  1.8200000000000E+00  0.0000000000000E+00  0.0000000000000E+00
184  1.8300000000000E+00  0.0000000000000E+00  0.0000000000000E+00
185  1.8400000000000E+00  0.0000000000000E+00  0.0000000000000E+00
186  1.8500000000000E+00  0.0000000000000E+00  0.0000000000000E+00
187  1.8600000000000E+00  0.0000000000000E+00  0.0000000000000E+00
188  1.8700000000000E+00  0.0000000000000E+00  0.0000000000000E+00
189  1.8800000000000E+00  0.0000000000000E+00  0.0000000000000E+00
190  1.8900000000000E+00  0.0000000000000E+00  0.0000000000000E+00
191  1.9000000000000E+00  0.0000000000000E+00  0.0000000000000E+00
192  1.9100000000000E+00  0.0000000000000E+00  0.0000000000000E+00
193  1.9200000000000E+00  0.0000000000000E+00  0.0000000000000E+00
194  1.9300000000000E+00  0.0000000000000E+00  0.0000000000000E+00
195  1.9400000000000E+00  0.0000000000000E+00  0.0000000000000E+00
196  1.9500000000000E+00  0.0000000000000E+00  0.0000000000000E+00
197  1.9600000000000E+00  0.0000000000000E+00  0.0000000000000E+00
198  1.9700000000000E+00  0.0000000000000E+00  0.0000000000000E+00
199  1.9800000000000E+00  0.0000000000000E+00  0.0000000000000E+00
200  1.9900000000000E+00  0.0000000000000E+00  0.0000000000000E+00
201  2.0000000000000E+00  0.0000000000000E+00  0.0000000000000E+00
202  2.0100000000000E+00  0.0000000000000E+00  0.0000000000000E+00
203  2.0200000000000E+00  0.0000000000000E+00  0.0000000000000E+00
204  2.0300000000000E+00  0.0000000000000E+00  0.0000000000000E+00
205  2.0400000000000E+00  0.0000000000000E+00  0.0000000000000E+00
206  2.0500000000000E+00  0.0000000000000E+00  0.0000000000000E+00
207  2.0600000000000E+00  0.0000000000000E+00  0.0000000000000E+00
208  2.0700000000000E+00  0.0000000000000E+00  0.0000000000000E+00
209  2.0800000000000E+00  0.0000000000000E+00  0.0000000000000E+00
210  2.0900000000000E+00  0.0000000000000E+00  0.0000000000000E+00
211  2.1000000000000E+00  0.0000000000000E+00  0.0000000000000E+00
212  2.1100000000000E+00  0.0000000000000E+00  0.0000000000000E+00
213  2.1200000000000E+00  0.0000000000000E+00  0.0000000000000E+00
214  2.1300000000000E+00  0.0000000000000E+00  0.0000000000000E+00
215  2.1400000000000E+00  0.0000000000000E+00  0.0000000000000E+00
216  2.1500000000000E+00  0.0000000000000E+00  0.0000000000000E+00
217  2.1600000000000E+00  0.0000000000000E+00  0.0000000000000E+00
218  2.1700000000000E+00  0.0000000000000E+00  0.0000000000000E+00
219  2.1800000000000E+00  0.0000000000000E+00  0.0000000000000E+00
220  2.1900000000000E+00  0.0000000000000E+00  0.0000000000000E+00
221  2.2000000000000E+00  0.0000000000000E+00  0.0000000000000E+00
222  2.2100000000000E+00  0.0000000000000E+00  0.0000000000000E+00
223  2.2200000000000E+00  0.0000000000000E+00  0.0000000000000E+00
224  2.2300000000000E+00  0.0000000000000E+00  0.0000000000000E+00
225  2.2400000000000E+00  0.0000000000000E+00  0.0000000000000E+00
226  2.2500000000000E+00  0.0000000000000E+00  0.0000000000000E+00
227  2.2600000000000E+00  0.0000000000000E+00  0.0000000000000E+00
228  2.2700000000000E+00  0.0000000000000E+00  0.0000000000000E+00
229  2.2800000000000E+00  0.0000000000000E+00  0.0000000000000E+00
230  2.2900000000000E+00  0.0000000000000E+00  0.0000000000000E+00
231  2.3000000000000E+00  0.0000000000000E+00  0.0000000000000E+00
232  2.3100000000000E+00  0.0000000000000E+00  0.0000000000000E+00
233  2.3200000000000E+00  0.0000000000000E+00  0.0000000000000E+00
234  2.3300000000000E+00  0.0000000000000E+00  0.0000000000000E+00
235  2.3400000000000E+00  0.0000000000000E+00  0.0000000000000E+00
236  2.3500000000000E+00  0.0000000000000E+00  0.0000000000000E+00
237  2.3600000000000E+00  0.0000000000000E+00  0.0000000000000E+00
238  2.3700000000000E+00  0.0000000000000E+00  0.0000000000000E+00
239  2.3800000000000E+00  0.0000000000000E+00  0.0000000000000E+00
240  2.3900000000000E+00  0.0000000000000E+00  0.0000000000000E+00
241  2.4000000000000E+00  0.0000000000000E+00  0.0000000000000E+00
242  2.4100000000000E+00  0.0000000000000E+00  0.0000000000000E+00
243  2.4200000000000E+00  0.0000000000000E+00  0.0000000000000E+00
244  2.4300000000000E+00  0.0000000000000E+00  0.0000000000000E+00
245  2.4400000000000E+00  0.0000000000000E+00  0.0000000000000E+00
246  2.4500000000000E+00  0.0000000000000E+00  0.0000000000000E+00
247  2.4600000000000E+00  0.0000000000000E+00  0.0000000000000E+00
248  2.4700000000000E+00  0.0000000000000E+00  0.0000000000000E+00
249  2.4800000000000E+00  0.0000000000000E+00  0.0000000000000E+00
250  2.4900000000000E+00  0.0000000000000E+00  0.0000000000000E+00
251  2.5000000000000E+00  0.0000000000000E+00  0.0000000000000E+00
252  2.5100000000000E+00  0.0000000000000E+00  0.0000000000000E+00
253  2.5200000000000E+00  0.0000000000000E+00  0.0000000000000E+00
254  2.5300000000000E+00  0.0000000000000E+00  0.0000000000000E+00
255  2.5400000000000E+00  0.0000000000000E+00  0.0000000000000E+00
256  2.5500000000000E+00  0.0000000000000E+00  0.0000000000000E+00
257  2.5600000000000E+00  0.0000000000000E+00  0.0000000000000E+00
258  2.5700000000000E+00  0.0000000000000E+00  0.0000000000000E+00
259  2.5800000000000E+00  0.0000000000000E+00  0.0000000000000E+00
260  2.5900000000000E+00  0.0000000000000E+00  0.0000000000000E+00
261  2.6000000000000E+00  0.0000000000000E+00  0.0000000000000E+00
262  2.6100000000000E+00  0.0000000000000E+00  0.0000000000000E+00
263  2.6200000000000E+00  0.0000000000000E+00  0.0000000000000E+00
264  2.6300000000000E+00  0.0000000000000E+00  0.0000000000000E+00
265  2.6400000000000E+00  0.0000000000000E+00  0.0000000000000E+00
266  2.6500000000000E+00  0.0000000000000E+00  0.0000000000000E+00
267  2.6600000000000E+00  0.0000000000000E+00  0.0000000000000E+00
268  2.6700000000000E+00  0.0000000000000E+00  0.0000000000000E+00
269  2.6800000000000E+00  0.0000000000000E+00  0.0000000000000E+00
270  2.6900000000000E+00  0.0000000000000E+00  0.0000000000000E+00
271  2.7000000000000E+00  0.0000000000000E+00  0.0000000000000E+00
272  2.7100000000000E+00  0.0000000000000E+00  0.0000000000000E+00
273  2.7200000000000E+00  0.0000000000000E+00  0.0000000000000E+00
274  2.7300000000000E+00  0.0000000000000E+00  0.0000000000000E+00
275  2.7400000000000E+00  0.0000000000000E+00  0.0000000000000E+00
276  2.7500000000000E+00  0.0000000000000E+00  0.0000000000000E+00
277  2.7600000000000E+00  0.0000000000000E+00  0.0000000000000E+00
278  2.7700000000000E+00  0.0000000000000E+00  0.0000000000000E+00
279  2.7800000000000E+00  0.0000000000000E+00  0.0000000000000E+00
280  2.7900000000000E+00  0.0000000000000E+00  0.0000000000000E+00
281  2.8000000000000E+00  0.0000000000000E+00  0.0000000000000E+00
282  2.8100000000000E+00  0.0000000000000E+00  0.0000000000000E+00
283  2.8200000000000E+00  0.0000000000000E+00  0.0000000000000E+00
284  2.8300000000000E+00  0.0000000000000E+00  0.0000000000000E+00
285  2.8400000000000E+00  0.0000000000000E+00  0.0000000000000E+00
286  2.8500000000000E+00  0.0000000000000E+00  0.0000000000000E+00
287  2.8600000000000E+00  0.0000000000000E+00  0.0000000000000E+00
288  2.8700000000000E+00  0.0000000000000E+00  0.0000000000000E+00
289  2.8800000000000E+00  0.0000000000000E+00  0.0000000000000E+00
290  2.8900000000000E+00  0.0000000000000E+00  0.0000000000000E+00
291  2.9000000000000E+00  0.0000000000000E+00  0.0000000000000E+00
292  2.9100000000000E+00  0.0000000000000E+00  0.0000000000000E+00
293  2.9200000000000E+00  0.0000000000000E+00  0.0000000000000E+00
294  2.9300000000000E+00  0.0000000000000E+00  0.0000000000000E+00
295  2.9400000000000E+00  0.0000000000000E+00  0.0000000000000E+00
296  2.9500000000000E+00  0.0000000000000E+00  0.0000000000000E+00
297  2.9600000000000E+00  0.0000000000000E+00  0.0000000000000E+00
298  2.9700000000000E+00  0.0000000000000E+00  0.0000000000000E+00
299  2.9800000000000E+00  0.0000000000000E+00  0.0000000000000E+00
300  2.9900000000000E+00  0.0000000000000E+00  0.0000000000000E+00
301  3.0000000000000E+00  0.0000000000000E+00  0.0000000000000E+00
302  3.0100000000000E+00  0.0000000000000E+00  0.0000000000000E+00
303  3.0200000000000E+00  0.0000000000000E+00  0.0000000000000E+00
304  3.0300000000000E+00  0.0000000000000E+00  0.0000000000000E+00
305  3.0400000000000E+00  0.0000000000000E+00  0.0000000000000E+00
306  3.0500000000000E+00  0.0000000000000E+00  0.0000000000000E+00
307  3.0600000000000E+00  0.0000000000000E+00  0.0000000000000E+00
308  3.0700000000000E+00  0.0000000000000E+00  0.0000000000000E+00
309  3.0800000000000E+00  0.0000000000000E+00  0.0000000000000E+00
310  3.0900000000000E+00  0.0000000000000E+00  0.0000000000000E+00
311  3.1000000000000E+00  0.0000000000000E+00  0.0000000000000E+00
312  3.1100000000000E+00  0.0000000000000E+00  0.0000000000000E+00
313  3.1200000000000E+00  0.0000000000000E+00  0.0000000000000E+00
314  3.1300000000000E+00  0.0000000000000E+00  0.0000000000000E+00
315  3.1400000000000E+00  0.0000000000000E+00  0.0000000000000E+00
316  3.1500000000000E+00  0.0000000000000E+00  0.0000000000000E+00
317  3.1600000000000E+00  0.0000000000000E+00  0.0000000000000E+00
318  3.1700000000000E+00  0.0000000000000E+00  0.0000000000000E+00
319  3.1800000000000E+00  0.0000000000000E+00  0.0000000000000E+00
320  3.1900000000000E+00  0.0000000000000E+00  0.0000000000000E+00
321  3.2000000000000E+00  0.0000000000000E+00  0.0000000000000E+00
322  3.2100000000000E+00  0.0000000000000E+00  0.0000000000000E+00
323  3.2200000000000E+00  0.0000000000000E+00  0.0000000000000E+00
324  3.2300000000000E+00  0.0000000000000E+00  0.0000000000000E+00
325  3.2400000000000E+00  0.0000000000000E+00  0.0000000000000E+00
326  3.2500000000000E+00  0.0000000000000E+00  0.0000000000000E+00
327  3.2600000000000E+00  0.0000000000000E+00  0.0000000000000E+00
328  3.2700000000000E+00  0.0000000000000E+00  0.0000000000000E+00
329  3.2800000000000E+00  0.0000000000000E+00  0.0000000000000E+00
330  3.2900000000000E+00  0.0000000000000E+00  0.0000000000000E+00
331  3.3000000000000E+00  0.0000000000000E+00  0.0000000000000E+00
332  3.3100000000000E+00  0.0000000000000E+00  0.0000000000000E+00
333  3.3200000000000E+00  0.0000000000000E+00  0.0000000000000E+00
334  3.3300000000000E+00  0.0000000000000E+00  0.0000000000000E+00
335  3.3400000000000E+00  0.0000000000000E+00  0.0000000000000E+00
336  3.3500000000000E+00  0.0000000000000E+00  0.0000000000000E+00
337  3.3600000000000E+00  0.0000000000000E+00  0.0000000000000E+00
338  3.3700000000000E+00  0.0000000000000E+00  0.0000000000000E+00
339  3.3800000000000E+00  0.0000000000000E+00  0.0000000000000E+00
340  3.3900000000000E+00  0.0000000000000E+00  0.0000000000000E+00
341  3.4000000000000E+00  0.0000000000000E+00  0.0000000000000E+00
342  3.4100000000000E+00  0.0000000000000E+00  0.0000000000000E+00
343  3.4200000000000E+00  0.0000000000000E+00  0.0000000000000E+00
344  3.4300000000000E+00  0.0000000000000E+00  0.0000000000000E+00
345  3.4400000000000E+00  0.0000000000000E+00  0.0000000000000E+00
346  3.4500000000000E+00  0.0000000000000E+00  0.0000000000000E+00
347  3.4600000000000E+00  0.0000000000000E+00  0.0000000000000E+00
348  3.4700000000000E+00  0.0000000000000E+00  0.0000000000000E+00
349  3.4800000000000E+00  0.0000000000000E+00  0.0000000000000E+00
350  3.4900000000000E+00  0.0000000000000E+00  0.0000000000000E+00
351  3.5000000000000E+00  0.0000000000000E+00  0.0000000000000E+00
352  3.5100000000000E+00  0.0000000000000E+00  0.0000000000000E+00
353  3.5200000000000E+00  0.0000000000000E+00  0.0000000000000E+00
354  3.5300000000000E+00  0.0000000000000E+00  0.0000000000000E+00
355  3.5400000000000E+00  0.0000000000000E+00  0.0000000000000E+00
356  3.5500000000000E+00  0.0000000000000E+00  0.0000000000000E+00
357  3.5600000000000E+00  0.0000000000000E+00  0.0000000000000E+00
358  3.5700000000000E+00  0.0000000000000E+00  0.0000000000000E+00
359  3.5800000000000E+00  0.0000000000000E+00  0.0000000000000E+00
360  3.5900000000000E+00  0.0000000000000E+00  0.0000000000000E+00
361  3.6000000000000E+00  0.0000000000000E+00  0.0000000000000E+00
362  3.6100000000000E+00  0.0000000000000E+00  0.0000000000000E+00
363  3.6200000000000E+00  0.0000000000000E+00  0.0000000000000E+00
364  3.6300000000000E+00  0.0000000000000E+00  0.0000000000000E+00
365  3.6400000000000E+00  0.0000000000000E+00  0.0000000000000E+00
366  3.6500000000000E+00  0.0000000000000E+00  0.0000000000000E+00
367  3.6600000000000E+00  0.0000000000000E+00  0.0000000000000E+00
368  3.6700000000000E+00  0.0000000000000E+00  0.0000000000000E+00
369  3.6800000000000E+00  0.0000000000000E+00  0.0000000000000E+00
370  3.6900000000000E+00  0.0000000000000E+00  0.0000000000000E+00
371  3.7000000000000E+00  0.0000000000000E+00  0.0000000000000E+00
372  3.7100000000000E+00  0.0000000000000E+00  0.0000000000000E+00
373  3.7200000000000E+00  0.0000000000000E+00  0.0000000000000E+00
374  3.7300000000000E+00  0.0000000000000E+00  0.0000000000000E+00
375  3.7400000000000E+00  0.0000000000000E+00  0.0000000000000E+00
376  3.7500000000000E+00  0.0000000000000E+00  0.0000000000000E+00
377  3.7600000000000E+00  0.0000000000000E+00  0.0000000000000E+00
378  3.7700000000000E+00  0.0000000000000E+00  0.0000000000000E+00
379  3.7800000000000E+00  0.0000000000000E+00  0.0000000000000E+00
380  3.7900000000000E+00  0.0000000000000E+00  0.0000000000000E+00
381  3.8000000000000E+00  0.0000000000000E+00  0.0000000000000E+00
382  3.8100000000000E+00  0.0000000000000E+00  0.0000000000000E+00
383  3.8200000000000E+00  0.0000000000000E+00  0.0000000000000E+00
384  3.8300000000000E+00  0.0000000000000E+00  0.0000000000000E+00
385  3.8400000000000E+00  0.0000000000000E+00  0.0000000000000E+00
386  3.8500000000000E+00  0.0000000000000E+00  0.0000000000000E+00
387  3.8600000000000E+00  0.0000000000000E+00  0.0000000000000E+00
388  3.8700000000000E+00  0.0000000000000E+00  0.0000000000000E+00
389  3.8800000000000E+00  0.0000000000000E+00  0.0000000000000E+00
390  3.8900000000000E+00  0.0000000000000E+00  0.0000000000000E+00
391  3.9000000000000E+00  0.0000000000000E+00  0.0000000000000E+00
392  3.9100000000000E+00  0.0000000000000E+00  0.0000000000000E+00
393  3.9200000000000E+00  0.0000000000000E+00  0.0000000000000E+00
394  3.9300000000000E+00  0.0000000000000E+00  0.0000000000000E+00
395  3.9400000000000E+00  0.0000000000000E+00  0.0000000000000E+00
396  3.9500000000000E+00  0.0000000000000E+00  0.0000000000000E+00
397  3.9600000000000E+00  0.0000000000000E+00  0.0000000000000E+00
398  3.9700000000000E+00  0.0000000000000E+00  0.0000000000000E+00
399  3.9800000000000E+00  0.0000000000000E+00  0.0000000000000E+00
400  3.9900000000000E+00  0.0000000000000E+00  0.0000000000000E+00
401  4.0000000000000E+00  0.0000000000000E+00  0.0000000000000E+00
402  4.0100000000000E+00  0.0000000000000E+00  0.0000000000000E+00
403  4.0200000000000E+00  0.0000000000000E+00  0.0000000000000E+00
404  4.0300000000000E+00  0.0000000000000E+00  0.0000000000000E+00
405  4.0400000000000E+00  0.0000000000000E+00  0.0000000000000E+00
406  4.0500000000000E+00  0.0000000000000E+00  0.0000000000000E+00
407  4.0600000000000E+00  0.0000000000000E+00  0.0000000000000E+00
408  4.0700000000000E+00  0.0000000000000E+00  0.0000000000000E+00
409  4.0800000000000E+00  0.0000000000000E+00  0.0000000000000E+00
410  4.0900000000000E+00  0.0000000000000E+00  0.0000000000000E+00
411  4.1000000000000E+00  0.0000000000000E+00  0.0000000000000E+00
412  4.1100000000000E+00  0.0000000000000E+00  0.0000000000000E+00
413  4.1200000000000E+00  0.0000000000000E+00  0.0000000000000E+00
414  4.1300000000000E+00  0.0000000000000E+00  0.0000000000000E+00
415  4.1400000000000E+00  0.0000000000000E+00  0.0000000000000E+00
416  4.1500000000000E+00  0.0000000000000E+00  0.0000000000000E+00
417  4.1600000000000E+00  0.0000000000000E+00  0.0000000000000E+00
418  4.1700000000000E+00  0.0000000000000E+00  0.0000000000000E+00
419  4.1800000000000E+00  0.0000000000000E+00  0.0000000000000E+00
420  4.1900000000000E+00  0.0000000000000E+00  0.0000000000000E+00
421  4.2000000000000E+00  0.0000000000000E+00  0.0000000000000E+00
422  4.2100000000000E+00  0.0000000000000E+00  0.0000000000000E+00
423  4.2200000000000E+00  0.0000000000000E+00  0.0000000000000E+00
424  4.2300000000000E+00  0.0000000000000E+00  0.0000000000000E+00
425  4.2400000000000E+00  0.0000000000000E+00  0.0000000000000E+00
426  4.2500000000000E+00  0.0000000000000E+00  0.0000000000000E+00
427  4.2600000000000E+00  0.0000000000000E+00  0.0000000000000E+00
428  4.2700000000000E+00  0.0000000000000E+00  0.0000000000000E+00
429  4.2800000000000E+00  0.0000000000000E+00  0.0000000000000E+00
430  4.2900000000000E+00  0.0000000000000E+00  0.0000000000000E+00
431  4.3000000000000E+00  0.0000000000000E+00  0.0000000000000E+00
432  4.3100000000000E+00  0.0000000000000E+00  0.0000000000000E+00
433  4.3200000000000E+00  0.0000000000000E+00  0.0000000000000E+00
434  4.3300000000000E+00  0.0000000000000E+00  0.0000000000000E+00
435  4.3400000000000E+00  0.0000000000000E+00  0.0000000000000E+00
436  4.3500000000000E+00  0.0000000000000E+00  0.0000000000000E+00
437  4.3600000000000E+00  0.0000000000000E+00  0.0000000000000E+00
438  4.3700000000000E+00  0.0000000000000E+00  0.0000000000000E+00
439  4.3800000000000E+00  0.0000000000000E+00  0.0000000000000E+00
440  4.3900000000000E+00  0.0000000000000E+00  0.0000000000000E+00
441  4.4000000000000E+00  0.0000000000000E+00  0.0000000000000E+00
442  4.4100000000000E+00  0.0000000000000E+00  0.0000000000000E+00
443  4.4200000000000E+00  0.0000000000000E+00  0.0000000000000E+00