Hf    ONCVPSP-3.2.3.1  r_core=   1.71613   1.71613   1.71613   2.42541
72.0000     12.0000      170501    zatom,zion,pspd
8      11   3     4   600     0    pspcod,pspxc,lmax,lloc,mmax,r2well
5.99000000  5.40000000  0.00000000    rchrg fchrg qchrg
2     2     2     2     0    nproj
1     1           extension_switch
0                         5.7514904667948E+00 -6.3138325594336E-01
1  0.0000000000000E+00  6.3985761133978E-11  1.0228546343249E-09
2  1.0000000000000E-02  5.0609205270468E-02 -5.5952781626332E-02
3  2.0000000000000E-02  1.0116235296025E-01 -1.1159242421059E-01
4  3.0000000000000E-02  1.5160334900061E-01 -1.6660830966982E-01
5  4.0000000000000E-02  2.0187602776467E-01 -2.2069483669110E-01
6  5.0000000000000E-02  2.5192411981710E-01 -2.7355386650816E-01
7  6.0000000000000E-02  3.0169122385230E-01 -3.2489709428027E-01
8  7.0000000000000E-02  3.5112078414165E-01 -3.7444832248594E-01
9  8.0000000000000E-02  4.0015607474624E-01 -4.2194561376725E-01
10  9.0000000000000E-02  4.4874019167265E-01 -4.6714330191916E-01
11  1.0000000000000E-01  4.9681605405692E-01 -5.0981384120000E-01
12  1.1000000000000E-01  5.4432641535591E-01 -5.4974947582840E-01
13  1.2000000000000E-01  5.9121388540791E-01 -5.8676371341181E-01
14  1.3000000000000E-01  6.3742096409562E-01 -6.2069258810195E-01
15  1.4000000000000E-01  6.8289008720755E-01 -6.5139570147296E-01
16  1.5000000000000E-01  7.2756368494759E-01 -6.7875703144487E-01
17  1.6000000000000E-01  7.7138425339072E-01 -7.0268550200524E-01
18  1.7000000000000E-01  8.1429443902585E-01 -7.2311530898948E-01
19  1.8000000000000E-01  8.5623713636627E-01 -7.4000599973958E-01
20  1.9000000000000E-01  8.9715559844644E-01 -7.5334230704558E-01
21  2.0000000000000E-01  9.3699355986218E-01 -7.6313374035622E-01
22  2.1000000000000E-01  9.7569537185129E-01 -7.6941393979910E-01
23  2.2000000000000E-01  1.0132061487549E+00 -7.7223980104792E-01
24  2.3000000000000E-01  1.0494719250491E+00 -7.7169038149068E-01
25  2.4000000000000E-01  1.0844398219907E+00 -7.6786560046060E-01
26  2.5000000000000E-01  1.1180582227869E+00 -7.6088474846795E-01
27  2.6000000000000E-01  1.1502769550683E+00 -7.5088482239231E-01
28  2.7000000000000E-01  1.1810474793336E+00 -7.3801870543841E-01
29  2.8000000000000E-01  1.2103230819288E+00 -7.2245321230723E-01
30  2.9000000000000E-01  1.2380590710340E+00 -7.0436702146585E-01
31  3.0000000000000E-01  1.2642129740588E+00 -6.8394851760249E-01
32  3.1000000000000E-01  1.2887447347840E+00 -6.6139356831129E-01
33  3.2000000000000E-01  1.3116169085487E+00 -6.3690325975458E-01
34  3.3000000000000E-01  1.3327948537518E+00 -6.1068161649071E-01
35  3.4000000000000E-01  1.3522469179299E+00 -5.8293333082580E-01
36  3.5000000000000E-01  1.3699446166813E+00 -5.5386152694732E-01
37  3.6000000000000E-01  1.3858628037320E+00 -5.2366558472356E-01
38  3.7000000000000E-01  1.3999798304821E+00 -4.9253904741055E-01
39  3.8000000000000E-01  1.4122776934310E+00 -4.6066763660166E-01
40  3.9000000000000E-01  1.4227421679587E+00 -4.2822739659287E-01
41  4.0000000000000E-01  1.4313629270303E+00 -3.9538298893014E-01
42  4.1000000000000E-01  1.4381336435007E+00 -3.6228615626785E-01
43  4.2000000000000E-01  1.4430520748191E+00 -3.2907437281576E-01
44  4.3000000000000E-01  1.4461201290655E+00 -2.9586969660295E-01
45  4.4000000000000E-01  1.4473439114020E+00 -2.6277783656413E-01
46  4.5000000000000E-01  1.4467337501767E+00 -2.2988744507683E-01
47  4.6000000000000E-01  1.4443042020858E+00 -1.9726964407298E-01
48  4.7000000000000E-01  1.4400740359725E+00 -1.6497779024093E-01
49  4.8000000000000E-01  1.4340661950233E+00 -1.3304748215058E-01
50  4.9000000000000E-01  1.4263077373021E+00 -1.0149680940488E-01
51  5.0000000000000E-01  1.4168297547533E+00 -7.0326841171109E-02
52  5.1000000000000E-01  1.4056672709862E+00 -3.9522348708396E-02
53  5.2000000000000E-01  1.3928591183432E+00 -9.0527538108633E-03
54  5.3000000000000E-01  1.3784477949303E+00  2.1126707543953E-02
55  5.4000000000000E-01  1.3624793024699E+00  5.1073619580409E-02
56  5.5000000000000E-01  1.3450029660019E+00  8.0856834786618E-02
57  5.6000000000000E-01  1.3260712366214E+00  1.1055475354960E-01
58  5.7000000000000E-01  1.3057394785923E+00  1.4025345532914E-01
59  5.8000000000000E-01  1.2840657423137E+00  1.7004470321273E-01
60  5.9000000000000E-01  1.2611105247425E+00  2.0002384533577E-01
61  6.0000000000000E-01  1.2369365189874E+00  2.3028763806114E-01
62  6.1000000000000E-01  1.2116083548827E+00  2.6093201695101E-01
63  6.2000000000000E-01  1.1851923324307E+00  2.9204984243630E-01
64  6.3000000000000E-01  1.1577561500617E+00  3.2372864766745E-01
65  6.4000000000000E-01  1.1293686297034E+00  3.5604841631806E-01
66  6.5000000000000E-01  1.1000994406756E+00  3.8907941809292E-01
67  6.6000000000000E-01  1.0700188244288E+00  4.2288012937417E-01
68  6.7000000000000E-01  1.0391973221352E+00  4.5749526581009E-01
69  6.8000000000000E-01  1.0077055071001E+00  4.9295395272375E-01
70  6.9000000000000E-01  9.7561372391651E-01  5.2926805800058E-01
71  7.0000000000000E-01  9.4299183620726E-01  5.6643071060662E-01
72  7.1000000000000E-01  9.0990898471563E-01  6.0441502611239E-01
73  7.2000000000000E-01  8.7643335739551E-01  6.4317305856808E-01
74  7.3000000000000E-01  8.4263197303162E-01  6.8263499580406E-01
75  7.4000000000000E-01  8.0857047978334E-01  7.2270861276120E-01
76  7.5000000000000E-01  7.7431296989439E-01  7.6327899476753E-01
77  7.6000000000000E-01  7.3992181164869E-01  8.0420853985432E-01
78  7.7000000000000E-01  7.0545749947954E-01  8.4533724622951E-01
79  7.8000000000000E-01  6.7097852295755E-01  8.8648328795105E-01
80  7.9000000000000E-01  6.3654125519449E-01  9.2744387869241E-01
81  8.0000000000000E-01  6.0219986100634E-01  9.6799642030231E-01
82  8.1000000000000E-01  5.6800622498277E-01  1.0078999296614E+00
83  8.2000000000000E-01  5.3400989941245E-01  1.0468967341669E+00
84  8.3000000000000E-01  5.0025807181760E-01  1.0847144230674E+00
85  8.4000000000000E-01  4.6679555165733E-01  1.1210680388456E+00
86  8.5000000000000E-01  4.3366477557139E-01  1.1556624899635E+00
87  8.6000000000000E-01  4.0090583035480E-01  1.1881951635512E+00
88  8.7000000000000E-01  3.6855649268118E-01  1.2183587140786E+00
89  8.8000000000000E-01  3.3665228443145E-01  1.2458440017316E+00
90  8.9000000000000E-01  3.0522654233548E-01  1.2703431521385E+00
91  9.0000000000000E-01  2.7431050049893E-01  1.2915527072886E+00
92  9.1000000000000E-01  2.4393338426890E-01  1.3091768359837E+00
93  9.2000000000000E-01  2.1412251378865E-01  1.3229305709595E+00
94  9.3000000000000E-01  1.8490341550751E-01  1.3325430389561E+00
95  9.4000000000000E-01  1.5629993984627E-01  1.3377606494949E+00
96  9.5000000000000E-01  1.2833438317237E-01  1.3383502079494E+00
97  9.6000000000000E-01  1.0102761221366E-01  1.3341019186918E+00
98  9.7000000000000E-01  7.4399189033874E-02  1.3248322446474E+00
99  9.8000000000000E-01  4.8467494709008E-02  1.3103865905054E+00
100  9.9000000000000E-01  2.3249849879264E-02  1.2906417780937E+00
101  1.0000000000000E+00 -1.2373695902977E-03  1.2655082840852E+00
102  1.0100000000000E+00 -2.4978623534868E-02  1.2349322120603E+00
103  1.0200000000000E+00 -4.7959106596213E-02  1.1988969733115E+00
104  1.0300000000000E+00 -7.0164656993819E-02  1.1574246532960E+00
105  1.0400000000000E+00 -9.1581676314176E-02  1.1105770434858E+00
106  1.0500000000000E+00 -1.1219706152672E-01  1.0584563214301E+00
107  1.0600000000000E+00 -1.3199815026595E-01  1.0012053653263E+00
108  1.0700000000000E+00 -1.5097268026805E-01  9.3900769247083E-01
109  1.0800000000000E+00 -1.6910876364124E-01  8.7208701512907E-01
110  1.0900000000000E+00 -1.8639487647452E-01  8.0070641078113E-01
111  1.1000000000000E+00 -2.0281986408381E-01  7.2516710769253E-01
112  1.1100000000000E+00 -2.1837296198737E-01  6.4580689071886E-01
113  1.1200000000000E+00 -2.3304383252078E-01  5.6299813570727E-01
114  1.1300000000000E+00 -2.4682261675784E-01  4.7714548542206E-01
115  1.1400000000000E+00 -2.5970000123071E-01  3.8868318313377E-01
116  1.1500000000000E+00 -2.7166729871861E-01  2.9807208411541E-01
117  1.1600000000000E+00 -2.8271654222791E-01  2.0579636797311E-01
118  1.1700000000000E+00 -2.9284059103810E-01  1.1235997920085E-01
119  1.1800000000000E+00 -3.0203324755653E-01  1.8282825671612E-02
120  1.1900000000000E+00 -3.1028938356025E-01 -7.5903232337411E-02
121  1.2000000000000E+00 -3.1760507425894E-01 -1.6965856746382E-01
122  1.2100000000000E+00 -3.2397773845954E-01 -2.6244010722571E-01
123  1.2200000000000E+00 -3.2940628302036E-01 -3.5370575345825E-01
124  1.2300000000000E+00 -3.3389124971430E-01 -4.4291885888059E-01
125  1.2400000000000E+00 -3.3743496248797E-01 -5.2955271845121E-01
126  1.2500000000000E+00 -3.4004167310692E-01 -6.1309503343750E-01
127  1.2600000000000E+00 -3.4171770313187E-01 -6.9305230544785E-01
128  1.2700000000000E+00 -3.4247158014218E-01 -7.6895411759260E-01
129  1.2800000000000E+00 -3.4231416618877E-01 -8.4035726146395E-01
130  1.2900000000000E+00 -3.4125877644654E-01 -9.0684966848948E-01
131  1.3000000000000E+00 -3.3932128610774E-01 -9.6805410603456E-01
132  1.3100000000000E+00 -3.3652022372305E-01 -1.0236316020189E+00
133  1.3200000000000E+00 -3.3287684914602E-01 -1.0732845608395E+00
134  1.3300000000000E+00 -3.2841521448057E-01 -1.1167595385375E+00
135  1.3400000000000E+00 -3.2316220666536E-01 -1.1538496497146E+00
136  1.3500000000000E+00 -3.1714757013920E-01 -1.1843965750490E+00
137  1.3600000000000E+00 -3.1040390867528E-01 -1.2082921510612E+00
138  1.3700000000000E+00 -3.0296666539218E-01 -1.2254795220788E+00
139  1.3800000000000E+00 -2.9487408003221E-01 -1.2359538361268E+00
140  1.3900000000000E+00 -2.8616712332690E-01 -1.2397624805727E+00
141  1.4000000000000E+00 -2.7688940782952E-01 -1.2370048448345E+00
142  1.4100000000000E+00 -2.6708707532310E-01 -1.2278316115942E+00
143  1.4200000000000E+00 -2.5680866113074E-01 -1.2124435820329E+00
144  1.4300000000000E+00 -2.4610493531831E-01 -1.1910900342616E+00
145  1.4400000000000E+00 -2.3502872204014E-01 -1.1640666381315E+00
146  1.4500000000000E+00 -2.2363469738597E-01 -1.1317129326076E+00
147  1.4600000000000E+00 -2.1197916717975E-01 -1.0944093926894E+00
148  1.4700000000000E+00 -2.0011982606732E-01 -1.0525741106286E+00
149  1.4800000000000E+00 -1.8811549913047E-01 -1.0066591143913E+00
150  1.4900000000000E+00 -1.7602586836473E-01 -9.5714636700304E-01
151  1.5000000000000E+00 -1.6391118522913E-01 -9.0454346918011E-01
152  1.5100000000000E+00 -1.5183197206286E-01 -8.4937911748768E-01
153  1.5200000000000E+00 -1.3984871407608E-01 -7.9219834982121E-01
154  1.5300000000000E+00 -1.2802154461250E-01 -7.3355762860667E-01
155  1.5400000000000E+00 -1.1640992599282E-01 -6.7401980481814E-01
156  1.5500000000000E+00 -1.0507232853936E-01 -6.1414901137274E-01
157  1.5600000000000E+00 -9.4065910368030E-02 -5.5450553420393E-01
158  1.5700000000000E+00 -8.3446200643284E-02 -4.9564071133588E-01
159  1.5800000000000E+00 -7.3266788755274E-02 -4.3809190592486E-01
160  1.5900000000000E+00 -6.3579022376479E-02 -3.8237760844795E-01
161  1.6000000000000E+00 -5.4431716474310E-02 -3.2899270690431E-01
162  1.6100000000000E+00 -4.5870876396785E-02 -2.7840398318042E-01
163  1.6200000000000E+00 -3.7939436741410E-02 -2.3104586764568E-01
164  1.6300000000000E+00 -3.0677019024056E-02 -1.8731650827135E-01
165  1.6400000000000E+00 -2.4119709558530E-02 -1.4757418078893E-01
166  1.6500000000000E+00 -1.8299860230061E-02 -1.1213408999560E-01
167  1.6600000000000E+00 -1.3248104514780E-02 -8.1279058173436E-02
168  1.6700000000000E+00 -8.9854775214723E-03 -5.5209652399109E-02
169  1.6800000000000E+00 -5.5158860337838E-03 -3.3994306524271E-02
170  1.6900000000000E+00 -2.8812977719632E-03 -1.7916634314710E-02
171  1.7000000000000E+00 -1.1516913338605E-03 -7.4216975453816E-03
172  1.7100000000000E+00 -2.5348895550439E-04 -1.9990357133930E-03
173  1.7200000000000E+00  5.8345880248593E-05 -1.1871002012782E-05
174  1.7300000000000E+00  5.6858370580519E-05  2.0638326067179E-04
175  1.7400000000000E+00 -1.4882158217415E-05 -6.1160768109264E-05
176  1.7500000000000E+00 -2.2296437648756E-05 -9.7233028788829E-05
177  1.7600000000000E+00  1.9107478640987E-06  7.1417625982098E-06
178  1.7700000000000E+00  4.4167867506943E-06  1.7216541829215E-05
179  1.7800000000000E+00  7.1945371481190E-09  3.2715387780673E-07
180  1.7900000000000E+00  3.0595307693562E-08  1.3912463510256E-06
181  1.8000000000000E+00  1.0175172276049E-11  4.6269092770357E-10
182  1.8100000000000E+00  0.0000000000000E+00  0.0000000000000E+00
183  1.8200000000000E+00  0.0000000000000E+00  0.0000000000000E+00
184  1.8300000000000E+00  0.0000000000000E+00  0.0000000000000E+00
185  1.8400000000000E+00  0.0000000000000E+00  0.0000000000000E+00
186  1.8500000000000E+00  0.0000000000000E+00  0.0000000000000E+00
187  1.8600000000000E+00  0.0000000000000E+00  0.0000000000000E+00
188  1.8700000000000E+00  0.0000000000000E+00  0.0000000000000E+00
189  1.8800000000000E+00  0.0000000000000E+00  0.0000000000000E+00
190  1.8900000000000E+00  0.0000000000000E+00  0.0000000000000E+00
191  1.9000000000000E+00  0.0000000000000E+00  0.0000000000000E+00
192  1.9100000000000E+00  0.0000000000000E+00  0.0000000000000E+00
193  1.9200000000000E+00  0.0000000000000E+00  0.0000000000000E+00
194  1.9300000000000E+00  0.0000000000000E+00  0.0000000000000E+00
195  1.9400000000000E+00  0.0000000000000E+00  0.0000000000000E+00
196  1.9500000000000E+00  0.0000000000000E+00  0.0000000000000E+00
197  1.9600000000000E+00  0.0000000000000E+00  0.0000000000000E+00
198  1.9700000000000E+00  0.0000000000000E+00  0.0000000000000E+00
199  1.9800000000000E+00  0.0000000000000E+00  0.0000000000000E+00
200  1.9900000000000E+00  0.0000000000000E+00  0.0000000000000E+00
201  2.0000000000000E+00  0.0000000000000E+00  0.0000000000000E+00
202  2.0100000000000E+00  0.0000000000000E+00  0.0000000000000E+00
203  2.0200000000000E+00  0.0000000000000E+00  0.0000000000000E+00
204  2.0300000000000E+00  0.0000000000000E+00  0.0000000000000E+00
205  2.0400000000000E+00  0.0000000000000E+00  0.0000000000000E+00
206  2.0500000000000E+00  0.0000000000000E+00  0.0000000000000E+00
207  2.0600000000000E+00  0.0000000000000E+00  0.0000000000000E+00
208  2.0700000000000E+00  0.0000000000000E+00  0.0000000000000E+00
209  2.0800000000000E+00  0.0000000000000E+00  0.0000000000000E+00
210  2.0900000000000E+00  0.0000000000000E+00  0.0000000000000E+00
211  2.1000000000000E+00  0.0000000000000E+00  0.0000000000000E+00
212  2.1100000000000E+00  0.0000000000000E+00  0.0000000000000E+00
213  2.1200000000000E+00  0.0000000000000E+00  0.0000000000000E+00
214  2.1300000000000E+00  0.0000000000000E+00  0.0000000000000E+00
215  2.1400000000000E+00  0.0000000000000E+00  0.0000000000000E+00
216  2.1500000000000E+00  0.0000000000000E+00  0.0000000000000E+00
217  2.1600000000000E+00  0.0000000000000E+00  0.0000000000000E+00
218  2.1700000000000E+00  0.0000000000000E+00  0.0000000000000E+00
219  2.1800000000000E+00  0.0000000000000E+00  0.0000000000000E+00
220  2.1900000000000E+00  0.0000000000000E+00  0.0000000000000E+00
221  2.2000000000000E+00  0.0000000000000E+00  0.0000000000000E+00
222  2.2100000000000E+00  0.0000000000000E+00  0.0000000000000E+00
223  2.2200000000000E+00  0.0000000000000E+00  0.0000000000000E+00
224  2.2300000000000E+00  0.0000000000000E+00  0.0000000000000E+00
225  2.2400000000000E+00  0.0000000000000E+00  0.0000000000000E+00
226  2.2500000000000E+00  0.0000000000000E+00  0.0000000000000E+00
227  2.2600000000000E+00  0.0000000000000E+00  0.0000000000000E+00
228  2.2700000000000E+00  0.0000000000000E+00  0.0000000000000E+00
229  2.2800000000000E+00  0.0000000000000E+00  0.0000000000000E+00
230  2.2900000000000E+00  0.0000000000000E+00  0.0000000000000E+00
231  2.3000000000000E+00  0.0000000000000E+00  0.0000000000000E+00
232  2.3100000000000E+00  0.0000000000000E+00  0.0000000000000E+00
233  2.3200000000000E+00  0.0000000000000E+00  0.0000000000000E+00
234  2.3300000000000E+00  0.0000000000000E+00  0.0000000000000E+00
235  2.3400000000000E+00  0.0000000000000E+00  0.0000000000000E+00
236  2.3500000000000E+00  0.0000000000000E+00  0.0000000000000E+00
237  2.3600000000000E+00  0.0000000000000E+00  0.0000000000000E+00
238  2.3700000000000E+00  0.0000000000000E+00  0.0000000000000E+00
239  2.3800000000000E+00  0.0000000000000E+00  0.0000000000000E+00
240  2.3900000000000E+00  0.0000000000000E+00  0.0000000000000E+00
241  2.4000000000000E+00  0.0000000000000E+00  0.0000000000000E+00
242  2.4100000000000E+00  0.0000000000000E+00  0.0000000000000E+00
243  2.4200000000000E+00  0.0000000000000E+00  0.0000000000000E+00
244  2.4300000000000E+00  0.0000000000000E+00  0.0000000000000E+00
245  2.4400000000000E+00  0.0000000000000E+00  0.0000000000000E+00
246  2.4500000000000E+00  0.0000000000000E+00  0.0000000000000E+00
247  2.4600000000000E+00  0.0000000000000E+00  0.0000000000000E+00
248  2.4700000000000E+00  0.0000000000000E+00  0.0000000000000E+00
249  2.4800000000000E+00  0.0000000000000E+00  0.0000000000000E+00
250  2.4900000000000E+00  0.0000000000000E+00  0.0000000000000E+00
251  2.5000000000000E+00  0.0000000000000E+00  0.0000000000000E+00
252  2.5100000000000E+00  0.0000000000000E+00  0.0000000000000E+00
253  2.5200000000000E+00  0.0000000000000E+00  0.0000000000000E+00
254  2.5300000000000E+00  0.0000000000000E+00  0.0000000000000E+00
255  2.5400000000000E+00  0.0000000000000E+00  0.0000000000000E+00
256  2.5500000000000E+00  0.0000000000000E+00  0.0000000000000E+00
257  2.5600000000000E+00  0.0000000000000E+00  0.0000000000000E+00
258  2.5700000000000E+00  0.0000000000000E+00  0.0000000000000E+00
259  2.5800000000000E+00  0.0000000000000E+00  0.0000000000000E+00
260  2.5900000000000E+00  0.0000000000000E+00  0.0000000000000E+00
261  2.6000000000000E+00  0.0000000000000E+00  0.0000000000000E+00
262  2.6100000000000E+00  0.0000000000000E+00  0.0000000000000E+00
263  2.6200000000000E+00  0.0000000000000E+00  0.0000000000000E+00
264  2.6300000000000E+00  0.0000000000000E+00  0.0000000000000E+00
265  2.6400000000000E+00  0.0000000000000E+00  0.0000000000000E+00
266  2.6500000000000E+00  0.0000000000000E+00  0.0000000000000E+00
267  2.6600000000000E+00  0.0000000000000E+00  0.0000000000000E+00
268  2.6700000000000E+00  0.0000000000000E+00  0.0000000000000E+00
269  2.6800000000000E+00  0.0000000000000E+00  0.0000000000000E+00
270  2.6900000000000E+00  0.0000000000000E+00  0.0000000000000E+00
271  2.7000000000000E+00  0.0000000000000E+00  0.0000000000000E+00
272  2.7100000000000E+00  0.0000000000000E+00  0.0000000000000E+00
273  2.7200000000000E+00  0.0000000000000E+00  0.0000000000000E+00
274  2.7300000000000E+00  0.0000000000000E+00  0.0000000000000E+00
275  2.7400000000000E+00  0.0000000000000E+00  0.0000000000000E+00
276  2.7500000000000E+00  0.0000000000000E+00  0.0000000000000E+00
277  2.7600000000000E+00  0.0000000000000E+00  0.0000000000000E+00
278  2.7700000000000E+00  0.0000000000000E+00  0.0000000000000E+00
279  2.7800000000000E+00  0.0000000000000E+00  0.0000000000000E+00
280  2.7900000000000E+00  0.0000000000000E+00  0.0000000000000E+00
281  2.8000000000000E+00  0.0000000000000E+00  0.0000000000000E+00
282  2.8100000000000E+00  0.0000000000000E+00  0.0000000000000E+00
283  2.8200000000000E+00  0.0000000000000E+00  0.0000000000000E+00
284  2.8300000000000E+00  0.0000000000000E+00  0.0000000000000E+00
285  2.8400000000000E+00  0.0000000000000E+00  0.0000000000000E+00
286  2.8500000000000E+00  0.0000000000000E+00  0.0000000000000E+00
287  2.8600000000000E+00  0.0000000000000E+00  0.0000000000000E+00
288  2.8700000000000E+00  0.0000000000000E+00  0.0000000000000E+00
289  2.8800000000000E+00  0.0000000000000E+00  0.0000000000000E+00
290  2.8900000000000E+00  0.0000000000000E+00  0.0000000000000E+00
291  2.9000000000000E+00  0.0000000000000E+00  0.0000000000000E+00
292  2.9100000000000E+00  0.0000000000000E+00  0.0000000000000E+00
293  2.9200000000000E+00  0.0000000000000E+00  0.0000000000000E+00
294  2.9300000000000E+00  0.0000000000000E+00  0.0000000000000E+00
295  2.9400000000000E+00  0.0000000000000E+00  0.0000000000000E+00
296  2.9500000000000E+00  0.0000000000000E+00  0.0000000000000E+00
297  2.9600000000000E+00  0.0000000000000E+00  0.0000000000000E+00
298  2.9700000000000E+00  0.0000000000000E+00  0.0000000000000E+00
299  2.9800000000000E+00  0.0000000000000E+00  0.0000000000000E+00
300  2.9900000000000E+00  0.0000000000000E+00  0.0000000000000E+00
301  3.0000000000000E+00  0.0000000000000E+00  0.0000000000000E+00
302  3.0100000000000E+00  0.0000000000000E+00  0.0000000000000E+00
303  3.0200000000000E+00  0.0000000000000E+00  0.0000000000000E+00
304  3.0300000000000E+00  0.0000000000000E+00  0.0000000000000E+00
305  3.0400000000000E+00  0.0000000000000E+00  0.0000000000000E+00
306  3.0500000000000E+00  0.0000000000000E+00  0.0000000000000E+00
307  3.0600000000000E+00  0.0000000000000E+00  0.0000000000000E+00
308  3.0700000000000E+00  0.0000000000000E+00  0.0000000000000E+00
309  3.0800000000000E+00  0.0000000000000E+00  0.0000000000000E+00
310  3.0900000000000E+00  0.0000000000000E+00  0.0000000000000E+00
311  3.1000000000000E+00  0.0000000000000E+00  0.0000000000000E+00
312  3.1100000000000E+00  0.0000000000000E+00  0.0000000000000E+00
313  3.1200000000000E+00  0.0000000000000E+00  0.0000000000000E+00
314  3.1300000000000E+00  0.0000000000000E+00  0.0000000000000E+00
315  3.1400000000000E+00  0.0000000000000E+00  0.0000000000000E+00
316  3.1500000000000E+00  0.0000000000000E+00  0.0000000000000E+00
317  3.1600000000000E+00  0.0000000000000E+00  0.0000000000000E+00
318  3.1700000000000E+00  0.0000000000000E+00  0.0000000000000E+00
319  3.1800000000000E+00  0.0000000000000E+00  0.0000000000000E+00
320  3.1900000000000E+00  0.0000000000000E+00  0.0000000000000E+00
321  3.2000000000000E+00  0.0000000000000E+00  0.0000000000000E+00
322  3.2100000000000E+00  0.0000000000000E+00  0.0000000000000E+00
323  3.2200000000000E+00  0.0000000000000E+00  0.0000000000000E+00
324  3.2300000000000E+00  0.0000000000000E+00  0.0000000000000E+00
325  3.2400000000000E+00  0.0000000000000E+00  0.0000000000000E+00
326  3.2500000000000E+00  0.0000000000000E+00  0.0000000000000E+00
327  3.2600000000000E+00  0.0000000000000E+00  0.0000000000000E+00
328  3.2700000000000E+00  0.0000000000000E+00  0.0000000000000E+00
329  3.2800000000000E+00  0.0000000000000E+00  0.0000000000000E+00
330  3.2900000000000E+00  0.0000000000000E+00  0.0000000000000E+00
331  3.3000000000000E+00  0.0000000000000E+00  0.0000000000000E+00
332  3.3100000000000E+00  0.0000000000000E+00  0.0000000000000E+00
333  3.3200000000000E+00  0.0000000000000E+00  0.0000000000000E+00
334  3.3300000000000E+00  0.0000000000000E+00  0.0000000000000E+00
335  3.3400000000000E+00  0.0000000000000E+00  0.0000000000000E+00
336  3.3500000000000E+00  0.0000000000000E+00  0.0000000000000E+00
337  3.3600000000000E+00  0.0000000000000E+00  0.0000000000000E+00
338  3.3700000000000E+00  0.0000000000000E+00  0.0000000000000E+00
339  3.3800000000000E+00  0.0000000000000E+00  0.0000000000000E+00
340  3.3900000000000E+00  0.0000000000000E+00  0.0000000000000E+00
341  3.4000000000000E+00  0.0000000000000E+00  0.0000000000000E+00
342  3.4100000000000E+00  0.0000000000000E+00  0.0000000000000E+00
343  3.4200000000000E+00  0.0000000000000E+00  0.0000000000000E+00
344  3.4300000000000E+00  0.0000000000000E+00  0.0000000000000E+00
345  3.4400000000000E+00  0.0000000000000E+00  0.0000000000000E+00
346  3.4500000000000E+00  0.0000000000000E+00  0.0000000000000E+00
347  3.4600000000000E+00  0.0000000000000E+00  0.0000000000000E+00
348  3.4700000000000E+00  0.0000000000000E+00  0.0000000000000E+00
349  3.4800000000000E+00  0.0000000000000E+00  0.0000000000000E+00
350  3.4900000000000E+00  0.0000000000000E+00  0.0000000000000E+00
351  3.5000000000000E+00  0.0000000000000E+00  0.0000000000000E+00
352  3.5100000000000E+00  0.0000000000000E+00  0.0000000000000E+00
353  3.5200000000000E+00  0.0000000000000E+00  0.0000000000000E+00
354  3.5300000000000E+00  0.0000000000000E+00  0.0000000000000E+00
355  3.5400000000000E+00  0.0000000000000E+00  0.0000000000000E+00
356  3.5500000000000E+00  0.0000000000000E+00  0.0000000000000E+00
357  3.5600000000000E+00  0.0000000000000E+00  0.0000000000000E+00
358  3.5700000000000E+00  0.0000000000000E+00  0.0000000000000E+00
359  3.5800000000000E+00  0.0000000000000E+00  0.0000000000000E+00
360  3.5900000000000E+00  0.0000000000000E+00  0.0000000000000E+00
361  3.6000000000000E+00  0.0000000000000E+00  0.0000000000000E+00
362  3.6100000000000E+00  0.0000000000000E+00  0.0000000000000E+00
363  3.6200000000000E+00  0.0000000000000E+00  0.0000000000000E+00
364  3.6300000000000E+00  0.0000000000000E+00  0.0000000000000E+00
365  3.6400000000000E+00  0.0000000000000E+00  0.0000000000000E+00
366  3.6500000000000E+00  0.0000000000000E+00  0.0000000000000E+00
367  3.6600000000000E+00  0.0000000000000E+00  0.0000000000000E+00
368  3.6700000000000E+00  0.0000000000000E+00  0.0000000000000E+00
369  3.6800000000000E+00  0.0000000000000E+00  0.0000000000000E+00
370  3.6900000000000E+00  0.0000000000000E+00  0.0000000000000E+00
371  3.7000000000000E+00  0.0000000000000E+00  0.0000000000000E+00
372  3.7100000000000E+00  0.0000000000000E+00  0.0000000000000E+00
373  3.7200000000000E+00  0.0000000000000E+00  0.0000000000000E+00
374  3.7300000000000E+00  0.0000000000000E+00  0.0000000000000E+00
375  3.7400000000000E+00  0.0000000000000E+00  0.0000000000000E+00
376  3.7500000000000E+00  0.0000000000000E+00  0.0000000000000E+00
377  3.7600000000000E+00  0.0000000000000E+00  0.0000000000000E+00
378  3.7700000000000E+00  0.0000000000000E+00  0.0000000000000E+00
379  3.7800000000000E+00  0.0000000000000E+00  0.0000000000000E+00
380  3.7900000000000E+00  0.0000000000000E+00  0.0000000000000E+00
381  3.8000000000000E+00  0.0000000000000E+00  0.0000000000000E+00
382  3.8100000000000E+00  0.0000000000000E+00  0.0000000000000E+00
383  3.8200000000000E+00  0.0000000000000E+00  0.0000000000000E+00
384  3.8300000000000E+00  0.0000000000000E+00  0.0000000000000E+00
385  3.8400000000000E+00  0.0000000000000E+00  0.0000000000000E+00
386  3.8500000000000E+00  0.0000000000000E+00  0.0000000000000E+00
387  3.8600000000000E+00  0.0000000000000E+00  0.0000000000000E+00
388  3.8700000000000E+00  0.0000000000000E+00  0.0000000000000E+00
389  3.8800000000000E+00  0.0000000000000E+00  0.0000000000000E+00
390  3.8900000000000E+00  0.0000000000000E+00  0.0000000000000E+00
391  3.9000000000000E+00  0.0000000000000E+00  0.0000000000000E+00
392  3.9100000000000E+00  0.0000000000000E+00  0.0000000000000E+00
393  3.9200000000000E+00  0.0000000000000E+00  0.0000000000000E+00
394  3.9300000000000E+00  0.0000000000000E+00  0.0000000000000E+00
395  3.9400000000000E+00  0.0000000000000E+00  0.0000000000000E+00
396  3.9500000000000E+00  0.0000000000000E+00  0.0000000000000E+00
397  3.9600000000000E+00  0.0000000000000E+00  0.0000000000000E+00
398  3.9700000000000E+00  0.0000000000000E+00  0.0000000000000E+00
399  3.9800000000000E+00  0.0000000000000E+00  0.0000000000000E+00
400  3.9900000000000E+00  0.0000000000000E+00  0.0000000000000E+00
401  4.0000000000000E+00  0.0000000000000E+00  0.0000000000000E+00
402  4.0100000000000E+00  0.0000000000000E+00  0.0000000000000E+00
403  4.0200000000000E+00  0.0000000000000E+00  0.0000000000000E+00
404  4.0300000000000E+00  0.0000000000000E+00  0.0000000000000E+00
405  4.0400000000000E+00  0.0000000000000E+00  0.0000000000000E+00
406  4.0500000000000E+00  0.0000000000000E+00  0.0000000000000E+00
407  4.0600000000000E+00  0.0000000000000E+00  0.0000000000000E+00
408  4.0700000000000E+00  0.0000000000000E+00  0.0000000000000E+00
409  4.0800000000000E+00  0.0000000000000E+00  0.0000000000000E+00
410  4.0900000000000E+00  0.0000000000000E+00  0.0000000000000E+00
411  4.1000000000000E+00  0.0000000000000E+00  0.0000000000000E+00
412  4.1100000000000E+00  0.0000000000000E+00  0.0000000000000E+00
413  4.1200000000000E+00  0.0000000000000E+00  0.0000000000000E+00
414  4.1300000000000E+00  0.0000000000000E+00  0.0000000000000E+00
415  4.1400000000000E+00  0.0000000000000E+00  0.0000000000000E+00
416  4.1500000000000E+00  0.0000000000000E+00  0.0000000000000E+00
417  4.1600000000000E+00  0.0000000000000E+00  0.0000000000000E+00
418  4.1700000000000E+00  0.0000000000000E+00  0.0000000000000E+00
419  4.1800000000000E+00  0.0000000000000E+00  0.0000000000000E+00
420  4.1900000000000E+00  0.0000000000000E+00  0.0000000000000E+00
421  4.2000000000000E+00  0.0000000000000E+00  0.0000000000000E+00
422  4.2100000000000E+00  0.0000000000000E+00  0.0000000000000E+00
423  4.2200000000000E+00  0.0000000000000E+00  0.0000000000000E+00
424  4.2300000000000E+00  0.0000000000000E+00  0.0000000000000E+00
425  4.2400000000000E+00  0.0000000000000E+00  0.0000000000000E+00
426  4.2500000000000E+00  0.0000000000000E+00  0.0000000000000E+00
427  4.2600000000000E+00  0.0000000000000E+00  0.0000000000000E+00
428  4.2700000000000E+00  0.0000000000000E+00  0.0000000000000E+00
429  4.2800000000000E+00  0.0000000000000E+00  0.0000000000000E+00
430  4.2900000000000E+00  0.0000000000000E+00  0.0000000000000E+00
431  4.3000000000000E+00  0.0000000000000E+00  0.0000000000000E+00
432  4.3100000000000E+00  0.0000000000000E+00  0.0000000000000E+00
433  4.3200000000000E+00  0.0000000000000E+00  0.0000000000000E+00
434  4.3300000000000E+00  0.0000000000000E+00  0.0000000000000E+00
435  4.3400000000000E+00  0.0000000000000E+00  0.0000000000000E+00
436  4.3500000000000E+00  0.0000000000000E+00  0.0000000000000E+00
437  4.3600000000000E+00  0.0000000000000E+00  0.0000000000000E+00
438  4.3700000000000E+00  0.0000000000000E+00  0.0000000000000E+00
439  4.3800000000000E+00  0.0000000000000E+00  0.0000000000000E+00
440  4.3900000000000E+00  0.0000000000000E+00  0.0000000000000E+00
441  4.4000000000000E+00  0.0000000000000E+00  0.0000000000000E+00
442  4.4100000000000E+00  0.0000000000000E+00  0.0000000000000E+00
443  4.4200000000000E+00  0.0000000000000E+00  0.0000000000000E+00