Ta    ONCVPSP-3.2.3.1  r_core=   1.71294   1.71294   1.71294   2.25368
73.0000     13.0000      170501    zatom,zion,pspd
8      11   3     4   600     0    pspcod,pspxc,lmax,lloc,mmax,r2well
5.99000000  5.00000000  0.00000000    rchrg fchrg qchrg
2     2     2     2     0    nproj
1     1           extension_switch
0                         1.1105323632113E+01  1.4070937645671E+00
1  0.0000000000000E+00 -2.3602630960795E-10  5.7561153066210E-10
2  1.0000000000000E-02  6.3939484583109E-02 -2.0634408328955E-02
3  2.0000000000000E-02  1.2773685623336E-01 -4.1094805391113E-02
4  3.0000000000000E-02  1.9125067507315E-01 -6.1208587148054E-02
5  4.0000000000000E-02  2.5434084147674E-01 -8.0805949906422E-02
6  5.0000000000000E-02  3.1686925161029E-01 -9.9721255358935E-02
7  6.0000000000000E-02  3.7870043563761E-01 -1.1779435387936E-01
8  7.0000000000000E-02  4.3970217309337E-01 -1.3487185283804E-01
9  8.0000000000000E-02  4.9974608016118E-01 -1.5080831728023E-01
10  9.0000000000000E-02  5.5870816388479E-01 -1.6546739101752E-01
11  1.0000000000000E-01  6.1646933868227E-01 -1.7872282701716E-01
12  1.1000000000000E-01  6.7291590092285E-01 -1.9045941692465E-01
13  1.2000000000000E-01  7.2793995776021E-01 -2.0057381061373E-01
14  1.3000000000000E-01  7.8143980688853E-01 -2.0897521781274E-01
15  1.4000000000000E-01  8.3332026439615E-01 -2.1558598509601E-01
16  1.5000000000000E-01  8.8349293842794E-01 -2.2034204284076E-01
17  1.6000000000000E-01  9.3187644692906E-01 -2.2319321811978E-01
18  1.7000000000000E-01  9.7839657832060E-01 -2.2410341091504E-01
19  1.8000000000000E-01  1.0229863945491E+00 -2.2305063248127E-01
20  1.9000000000000E-01  1.0655862765471E+00 -2.2002690614764E-01
21  2.0000000000000E-01  1.1061439127392E+00 -2.1503803230409E-01
22  2.1000000000000E-01  1.1446142318149E+00 -2.0810322076175E-01
23  2.2000000000000E-01  1.1809592815666E+00 -1.9925459508872E-01
24  2.3000000000000E-01  1.2151480561489E+00 -1.8853657488907E-01
25  2.4000000000000E-01  1.2471562746439E+00 -1.7600514329871E-01
26  2.5000000000000E-01  1.2769661143203E+00 -1.6172700820409E-01
27  2.6000000000000E-01  1.3045659024382E+00 -1.4577866683414E-01
28  2.7000000000000E-01  1.3299497708745E+00 -1.2824538442103E-01
29  2.8000000000000E-01  1.3531172782192E+00 -1.0922009855883E-01
30  2.9000000000000E-01  1.3740730043241E+00 -8.8802261701645E-02
31  3.0000000000000E-01  1.3928261225527E+00 -6.7096634923939E-02
32  3.1000000000000E-01  1.4093899552015E+00 -4.4212046609076E-02
33  3.2000000000000E-01  1.4237815177153E+00 -2.0260130129558E-02
34  3.3000000000000E-01  1.4360210574142E+00  4.6459451695748E-03
35  3.4000000000000E-01  1.4461315924834E+00  3.0392735278656E-02
36  3.5000000000000E-01  1.4541384569423E+00  5.6867760778630E-02
37  3.6000000000000E-01  1.4600688572129E+00  8.3960709916612E-02
38  3.7000000000000E-01  1.4639514457505E+00  1.1156459174706E-01
39  3.8000000000000E-01  1.4658159169757E+00  1.3957682610702E-01
40  3.9000000000000E-01  1.4656926304665E+00  1.6790025786509E-01
41  4.0000000000000E-01  1.4636122660311E+00  1.9644408369515E-01
42  4.1000000000000E-01  1.4596055148877E+00  2.2512468057174E-01
43  4.2000000000000E-01  1.4537028107360E+00  2.5386632625368E-01
44  4.3000000000000E-01  1.4459341040157E+00  2.8260180320609E-01
45  4.4000000000000E-01  1.4363286821166E+00  3.1127287869772E-01
46  4.5000000000000E-01  1.4249150377419E+00  3.3983065518561E-01
47  4.6000000000000E-01  1.4117207870275E+00  3.6823578655022E-01
48  4.7000000000000E-01  1.3967726384059E+00  3.9645855725580E-01
49  4.8000000000000E-01  1.3800964125650E+00  4.2447882306716E-01
50  4.9000000000000E-01  1.3617171132080E+00  4.5228581353907E-01
51  5.0000000000000E-01  1.3416590476711E+00  4.7987779809111E-01
52  5.1000000000000E-01  1.3199459958136E+00  5.0726161907339E-01
53  5.2000000000000E-01  1.2966014249567E+00  5.3445209679643E-01
54  5.3000000000000E-01  1.2716487480383E+00  5.6147131302960E-01
55  5.4000000000000E-01  1.2451116215549E+00  5.8834778094568E-01
56  5.5000000000000E-01  1.2170142793078E+00  6.1511551088868E-01
57  5.6000000000000E-01  1.1873818974486E+00  6.4181298265580E-01
58  5.7000000000000E-01  1.1562409858446E+00  6.6848203619065E-01
59  5.8000000000000E-01  1.1236198003605E+00  6.9516669367590E-01
60  5.9000000000000E-01  1.0895487702836E+00  7.2191192697193E-01
61  6.0000000000000E-01  1.0540609348111E+00  7.4876238516411E-01
62  6.1000000000000E-01  1.0171923822757E+00  7.7576109764320E-01
63  6.2000000000000E-01  9.7898268560977E-01  8.0294816864374E-01
64  6.3000000000000E-01  9.3947532744602E-01  8.3035947949452E-01
65  6.4000000000000E-01  8.9871810822089E-01  8.5802541499015E-01
66  6.5000000000000E-01  8.5676353069403E-01  8.8596963026696E-01
67  6.6000000000000E-01  8.1366915441522E-01  9.1420787436139E-01
68  6.7000000000000E-01  7.6949791386799E-01  9.4274688623911E-01
69  6.8000000000000E-01  7.2431839428901E-01  9.7158337851599E-01
70  6.9000000000000E-01  6.7820505950388E-01  1.0007031233510E+00
71  7.0000000000000E-01  6.3123842653571E-01  1.0300801540725E+00
72  7.1000000000000E-01  5.8350518222004E-01  1.0596760950273E+00
73  7.2000000000000E-01  5.3509823760481E-01  1.0894396309070E+00
74  7.3000000000000E-01  4.8611671651020E-01  1.1193061254422E+00
75  7.4000000000000E-01  4.3666587527964E-01  1.1491973978443E+00
76  7.5000000000000E-01  3.8685695144897E-01  1.1790216637650E+00
77  7.6000000000000E-01  3.3680693979839E-01  1.2086736458247E+00
78  7.7000000000000E-01  2.8663829502181E-01  1.2380348569657E+00
79  7.8000000000000E-01  2.3647856104056E-01  1.2669740580225E+00
80  7.9000000000000E-01  1.8645992779946E-01  1.2953478889942E+00
81  8.0000000000000E-01  1.3671871719782E-01  1.3230016715755E+00
82  8.1000000000000E-01  8.7394800626095E-02  1.3497703785629E+00
83  8.2000000000000E-01  3.8630951384471E-02  1.3754797638317E+00
84  8.3000000000000E-01 -9.4278639528554E-03  1.3999476446968E+00
85  8.4000000000000E-01 -5.6635250403404E-02  1.4229853266421E+00
86  8.5000000000000E-01 -1.0284420012276E-01  1.4443991586541E+00
87  8.6000000000000E-01 -1.4790795240191E-01  1.4639922057425E+00
88  8.7000000000000E-01 -1.9168089125680E-01  1.4815660236949E+00
89  8.8000000000000E-01 -2.3401947318289E-01  1.4969225197117E+00
90  8.9000000000000E-01 -2.7478317714402E-01  1.5098658813166E+00
91  9.0000000000000E-01 -3.1383546843614E-01  1.5202045548536E+00
92  9.1000000000000E-01 -3.5104476771487E-01  1.5277532539806E+00
93  9.2000000000000E-01 -3.8628541620865E-01  1.5323349778567E+00
94  9.3000000000000E-01 -4.1943862796021E-01  1.5337830182162E+00
95  9.4000000000000E-01 -4.5039341985008E-01  1.5319429342240E+00
96  9.5000000000000E-01 -4.7904751016085E-01  1.5266744739292E+00
97  9.6000000000000E-01 -5.0530817654184E-01  1.5178534212781E+00
98  9.7000000000000E-01 -5.2909306442842E-01  1.5053733480114E+00
99  9.8000000000000E-01 -5.5033093726102E-01  1.4891472503628E+00
100  9.9000000000000E-01 -5.6896236023254E-01  1.4691090512775E+00
101  1.0000000000000E+00 -5.8494030976427E-01  1.4452149498915E+00
102  1.0100000000000E+00 -5.9823070148767E-01  1.4174446012665E+00
103  1.0200000000000E+00 -6.0881283012221E-01  1.3858021107347E+00
104  1.0300000000000E+00 -6.1667971539202E-01  1.3503168288781E+00
105  1.0400000000000E+00 -6.2183834890478E-01  1.3110439349184E+00
106  1.0500000000000E+00 -6.2430983776995E-01  1.2680647982155E+00
107  1.0600000000000E+00 -6.2412944164861E-01  1.2214871096420E+00
108  1.0700000000000E+00 -6.2134650091882E-01  1.1714447768518E+00
109  1.0800000000000E+00 -6.1602425453555E-01  1.1180975794998E+00
110  1.0900000000000E+00 -6.0823954733617E-01  1.0616305831424E+00
111  1.1000000000000E+00 -5.9808242747234E-01  1.0022533126816E+00
112  1.1100000000000E+00 -5.8565563578744E-01  9.4019868882276E-01
113  1.1200000000000E+00 -5.7107398991497E-01  8.7572173321811E-01
114  1.1300000000000E+00 -5.5446366696549E-01  8.0909805048036E-01
115  1.1400000000000E+00 -5.3596138970502E-01  7.4062209764321E-01
116  1.1500000000000E+00 -5.1571352209076E-01  6.7060525387175E-01
117  1.1600000000000E+00 -4.9387508089107E-01  5.9937370522166E-01
118  1.1700000000000E+00 -4.7060867105285E-01  5.2726616141755E-01
119  1.1800000000000E+00 -4.4608335332902E-01  4.5463142359878E-01
120  1.1900000000000E+00 -4.2047345339735E-01  3.8182582365986E-01
121  1.2000000000000E+00 -3.9395732219065E-01  3.0921055695250E-01
122  1.2100000000000E+00 -3.6671605800591E-01  2.3714893210462E-01
123  1.2200000000000E+00 -3.3893220125062E-01  1.6600356240445E-01
124  1.2300000000000E+00 -3.1078841302650E-01  9.6133524008483E-02
125  1.2400000000000E+00 -2.8246614911620E-01  2.7891507101644E-02
126  1.2500000000000E+00 -2.5414434104943E-01 -3.8379013571465E-02
127  1.2600000000000E+00 -2.2599809584764E-01 -1.0234656254381E-01
128  1.2700000000000E+00 -1.9819742619931E-01 -1.6369437519959E-01
129  1.2800000000000E+00 -1.7090602239287E-01 -2.2212301138724E-01
130  1.2900000000000E+00 -1.4428007699489E-01 -2.7735284614840E-01
131  1.3000000000000E+00 -1.1846717329220E-01 -3.2912641254972E-01
132  1.3100000000000E+00 -9.3605247272121E-02 -3.7721057443040E-01
133  1.3200000000000E+00 -6.9821632690442E-02 -4.2139850739893E-01
134  1.3300000000000E+00 -4.7232198450867E-02 -4.6151146714093E-01
135  1.3400000000000E+00 -2.5940585441387E-02 -4.9740032886229E-01
136  1.3500000000000E+00 -6.0375504627227E-03 -5.2894688057206E-01
137  1.3600000000000E+00  1.2399576608266E-02 -5.5606485632163E-01
138  1.3700000000000E+00  2.9307318581727E-02 -5.7870070082297E-01
139  1.3800000000000E+00  4.4636354005790E-02 -5.9683405272202E-01
140  1.3900000000000E+00  5.8351696321804E-02 -6.1047794405205E-01
141  1.4000000000000E+00  7.0432747346086E-02 -6.1967871203278E-01
142  1.4100000000000E+00  8.0873223561839E-02 -6.2451561997294E-01
143  1.4200000000000E+00  8.9680958529229E-02 -6.2510019515943E-01
144  1.4300000000000E+00  9.6877580989495E-02 -6.2157528300983E-01
145  1.4400000000000E+00  1.0249807392275E-01 -6.1411382987146E-01
146  1.4500000000000E+00  1.0659021878034E-01 -6.0291740445712E-01
147  1.4600000000000E+00  1.0921392924353E-01 -5.8821446820802E-01
148  1.4700000000000E+00  1.1044048417058E-01 -5.7025841712629E-01
149  1.4800000000000E+00  1.1035166399550E-01 -5.4932540516491E-01
150  1.4900000000000E+00  1.0903880282416E-01 -5.2571197767772E-01
151  1.5000000000000E+00  1.0660176348509E-01 -4.9973253192227E-01
152  1.5100000000000E+00  1.0314784722787E-01 -4.7171663184536E-01
153  1.5200000000000E+00  9.8790649186071E-02 -4.4200620303295E-01
154  1.5300000000000E+00  9.3648870604699E-02 -4.1095263346777E-01
155  1.5400000000000E+00  8.7845101312231E-02 -3.7891381138984E-01
156  1.5500000000000E+00  8.1504583690709E-02 -3.4625112650856E-01
157  1.5600000000000E+00  7.4753974001632E-02 -3.1332647174458E-01
158  1.5700000000000E+00  6.7720103406993E-02 -2.8049924895234E-01
159  1.5800000000000E+00  6.0528784489597E-02 -2.4812349109211E-01
160  1.5900000000000E+00  5.3303580353308E-02 -2.1654489210431E-01
161  1.6000000000000E+00  4.6164627244338E-02 -1.8609796389500E-01
162  1.6100000000000E+00  3.9227996657498E-02 -1.5710455485161E-01
163  1.6200000000000E+00  3.2604124344609E-02 -1.2987000374950E-01
164  1.6300000000000E+00  2.6395630257645E-02 -1.0467772357285E-01
165  1.6400000000000E+00  2.0695472388034E-02 -8.1784697780739E-02
166  1.6500000000000E+00  1.5584750192267E-02 -6.1416118803960E-02
167  1.6600000000000E+00  1.1134894005719E-02 -4.3775512725463E-02
168  1.6700000000000E+00  7.3931883627296E-03 -2.8988579268765E-02
169  1.6800000000000E+00  4.3849431199238E-03 -1.7115039569883E-02
170  1.6900000000000E+00  2.1886650303340E-03 -8.4341819848207E-03
171  1.7000000000000E+00  8.5792360294637E-04 -3.1411619152244E-03
172  1.7100000000000E+00  2.2709528253781E-04 -6.3689779810497E-04
173  1.7200000000000E+00  1.2746589459984E-05  1.2274195774216E-04
174  1.7300000000000E+00 -8.5619933445179E-06  7.2757002314770E-05
175  1.7400000000000E+00  9.1918837095187E-06 -6.1982799803779E-05
176  1.7500000000000E+00  6.2959584941437E-06 -3.8563657322420E-05
177  1.7600000000000E+00 -1.0079638678703E-06  9.0140125747889E-06
178  1.7700000000000E+00 -9.8411910160962E-07  7.8863777493763E-06
179  1.7800000000000E+00 -2.6716666829717E-07  5.6342391598982E-07
180  1.7900000000000E+00 -3.0631046724484E-07  6.4597370646473E-07
181  1.8000000000000E+00  0.0000000000000E+00  0.0000000000000E+00
182  1.8100000000000E+00  0.0000000000000E+00  0.0000000000000E+00
183  1.8200000000000E+00  0.0000000000000E+00  0.0000000000000E+00
184  1.8300000000000E+00  0.0000000000000E+00  0.0000000000000E+00
185  1.8400000000000E+00  0.0000000000000E+00  0.0000000000000E+00
186  1.8500000000000E+00  0.0000000000000E+00  0.0000000000000E+00
187  1.8600000000000E+00  0.0000000000000E+00  0.0000000000000E+00
188  1.8700000000000E+00  0.0000000000000E+00  0.0000000000000E+00
189  1.8800000000000E+00  0.0000000000000E+00  0.0000000000000E+00
190  1.8900000000000E+00  0.0000000000000E+00  0.0000000000000E+00
191  1.9000000000000E+00  0.0000000000000E+00  0.0000000000000E+00
192  1.9100000000000E+00  0.0000000000000E+00  0.0000000000000E+00
193  1.9200000000000E+00  0.0000000000000E+00  0.0000000000000E+00
194  1.9300000000000E+00  0.0000000000000E+00  0.0000000000000E+00
195  1.9400000000000E+00  0.0000000000000E+00  0.0000000000000E+00
196  1.9500000000000E+00  0.0000000000000E+00  0.0000000000000E+00
197  1.9600000000000E+00  0.0000000000000E+00  0.0000000000000E+00
198  1.9700000000000E+00  0.0000000000000E+00  0.0000000000000E+00
199  1.9800000000000E+00  0.0000000000000E+00  0.0000000000000E+00
200  1.9900000000000E+00  0.0000000000000E+00  0.0000000000000E+00
201  2.0000000000000E+00  0.0000000000000E+00  0.0000000000000E+00
202  2.0100000000000E+00  0.0000000000000E+00  0.0000000000000E+00
203  2.0200000000000E+00  0.0000000000000E+00  0.0000000000000E+00
204  2.0300000000000E+00  0.0000000000000E+00  0.0000000000000E+00
205  2.0400000000000E+00  0.0000000000000E+00  0.0000000000000E+00
206  2.0500000000000E+00  0.0000000000000E+00  0.0000000000000E+00
207  2.0600000000000E+00  0.0000000000000E+00  0.0000000000000E+00
208  2.0700000000000E+00  0.0000000000000E+00  0.0000000000000E+00
209  2.0800000000000E+00  0.0000000000000E+00  0.0000000000000E+00
210  2.0900000000000E+00  0.0000000000000E+00  0.0000000000000E+00
211  2.1000000000000E+00  0.0000000000000E+00  0.0000000000000E+00
212  2.1100000000000E+00  0.0000000000000E+00  0.0000000000000E+00
213  2.1200000000000E+00  0.0000000000000E+00  0.0000000000000E+00
214  2.1300000000000E+00  0.0000000000000E+00  0.0000000000000E+00
215  2.1400000000000E+00  0.0000000000000E+00  0.0000000000000E+00
216  2.1500000000000E+00  0.0000000000000E+00  0.0000000000000E+00
217  2.1600000000000E+00  0.0000000000000E+00  0.0000000000000E+00
218  2.1700000000000E+00  0.0000000000000E+00  0.0000000000000E+00
219  2.1800000000000E+00  0.0000000000000E+00  0.0000000000000E+00
220  2.1900000000000E+00  0.0000000000000E+00  0.0000000000000E+00
221  2.2000000000000E+00  0.0000000000000E+00  0.0000000000000E+00
222  2.2100000000000E+00  0.0000000000000E+00  0.0000000000000E+00
223  2.2200000000000E+00  0.0000000000000E+00  0.0000000000000E+00
224  2.2300000000000E+00  0.0000000000000E+00  0.0000000000000E+00
225  2.2400000000000E+00  0.0000000000000E+00  0.0000000000000E+00
226  2.2500000000000E+00  0.0000000000000E+00  0.0000000000000E+00
227  2.2600000000000E+00  0.0000000000000E+00  0.0000000000000E+00
228  2.2700000000000E+00  0.0000000000000E+00  0.0000000000000E+00
229  2.2800000000000E+00  0.0000000000000E+00  0.0000000000000E+00
230  2.2900000000000E+00  0.0000000000000E+00  0.0000000000000E+00
231  2.3000000000000E+00  0.0000000000000E+00  0.0000000000000E+00
232  2.3100000000000E+00  0.0000000000000E+00  0.0000000000000E+00
233  2.3200000000000E+00  0.0000000000000E+00  0.0000000000000E+00
234  2.3300000000000E+00  0.0000000000000E+00  0.0000000000000E+00
235  2.3400000000000E+00  0.0000000000000E+00  0.0000000000000E+00
236  2.3500000000000E+00  0.0000000000000E+00  0.0000000000000E+00
237  2.3600000000000E+00  0.0000000000000E+00  0.0000000000000E+00
238  2.3700000000000E+00  0.0000000000000E+00  0.0000000000000E+00
239  2.3800000000000E+00  0.0000000000000E+00  0.0000000000000E+00
240  2.3900000000000E+00  0.0000000000000E+00  0.0000000000000E+00
241  2.4000000000000E+00  0.0000000000000E+00  0.0000000000000E+00
242  2.4100000000000E+00  0.0000000000000E+00  0.0000000000000E+00
243  2.4200000000000E+00  0.0000000000000E+00  0.0000000000000E+00
244  2.4300000000000E+00  0.0000000000000E+00  0.0000000000000E+00
245  2.4400000000000E+00  0.0000000000000E+00  0.0000000000000E+00
246  2.4500000000000E+00  0.0000000000000E+00  0.0000000000000E+00
247  2.4600000000000E+00  0.0000000000000E+00  0.0000000000000E+00
248  2.4700000000000E+00  0.0000000000000E+00  0.0000000000000E+00
249  2.4800000000000E+00  0.0000000000000E+00  0.0000000000000E+00
250  2.4900000000000E+00  0.0000000000000E+00  0.0000000000000E+00
251  2.5000000000000E+00  0.0000000000000E+00  0.0000000000000E+00
252  2.5100000000000E+00  0.0000000000000E+00  0.0000000000000E+00
253  2.5200000000000E+00  0.0000000000000E+00  0.0000000000000E+00
254  2.5300000000000E+00  0.0000000000000E+00  0.0000000000000E+00
255  2.5400000000000E+00  0.0000000000000E+00  0.0000000000000E+00
256  2.5500000000000E+00  0.0000000000000E+00  0.0000000000000E+00
257  2.5600000000000E+00  0.0000000000000E+00  0.0000000000000E+00
258  2.5700000000000E+00  0.0000000000000E+00  0.0000000000000E+00
259  2.5800000000000E+00  0.0000000000000E+00  0.0000000000000E+00
260  2.5900000000000E+00  0.0000000000000E+00  0.0000000000000E+00
261  2.6000000000000E+00  0.0000000000000E+00  0.0000000000000E+00
262  2.6100000000000E+00  0.0000000000000E+00  0.0000000000000E+00
263  2.6200000000000E+00  0.0000000000000E+00  0.0000000000000E+00
264  2.6300000000000E+00  0.0000000000000E+00  0.0000000000000E+00
265  2.6400000000000E+00  0.0000000000000E+00  0.0000000000000E+00
266  2.6500000000000E+00  0.0000000000000E+00  0.0000000000000E+00
267  2.6600000000000E+00  0.0000000000000E+00  0.0000000000000E+00
268  2.6700000000000E+00  0.0000000000000E+00  0.0000000000000E+00
269  2.6800000000000E+00  0.0000000000000E+00  0.0000000000000E+00
270  2.6900000000000E+00  0.0000000000000E+00  0.0000000000000E+00
271  2.7000000000000E+00  0.0000000000000E+00  0.0000000000000E+00
272  2.7100000000000E+00  0.0000000000000E+00  0.0000000000000E+00
273  2.7200000000000E+00  0.0000000000000E+00  0.0000000000000E+00
274  2.7300000000000E+00  0.0000000000000E+00  0.0000000000000E+00
275  2.7400000000000E+00  0.0000000000000E+00  0.0000000000000E+00
276  2.7500000000000E+00  0.0000000000000E+00  0.0000000000000E+00
277  2.7600000000000E+00  0.0000000000000E+00  0.0000000000000E+00
278  2.7700000000000E+00  0.0000000000000E+00  0.0000000000000E+00
279  2.7800000000000E+00  0.0000000000000E+00  0.0000000000000E+00
280  2.7900000000000E+00  0.0000000000000E+00  0.0000000000000E+00
281  2.8000000000000E+00  0.0000000000000E+00  0.0000000000000E+00
282  2.8100000000000E+00  0.0000000000000E+00  0.0000000000000E+00
283  2.8200000000000E+00  0.0000000000000E+00  0.0000000000000E+00
284  2.8300000000000E+00  0.0000000000000E+00  0.0000000000000E+00
285  2.8400000000000E+00  0.0000000000000E+00  0.0000000000000E+00
286  2.8500000000000E+00  0.0000000000000E+00  0.0000000000000E+00
287  2.8600000000000E+00  0.0000000000000E+00  0.0000000000000E+00
288  2.8700000000000E+00  0.0000000000000E+00  0.0000000000000E+00
289  2.8800000000000E+00  0.0000000000000E+00  0.0000000000000E+00
290  2.8900000000000E+00  0.0000000000000E+00  0.0000000000000E+00
291  2.9000000000000E+00  0.0000000000000E+00  0.0000000000000E+00
292  2.9100000000000E+00  0.0000000000000E+00  0.0000000000000E+00
293  2.9200000000000E+00  0.0000000000000E+00  0.0000000000000E+00
294  2.9300000000000E+00  0.0000000000000E+00  0.0000000000000E+00
295  2.9400000000000E+00  0.0000000000000E+00  0.0000000000000E+00
296  2.9500000000000E+00  0.0000000000000E+00  0.0000000000000E+00
297  2.9600000000000E+00  0.0000000000000E+00  0.0000000000000E+00
298  2.9700000000000E+00  0.0000000000000E+00  0.0000000000000E+00
299  2.9800000000000E+00  0.0000000000000E+00  0.0000000000000E+00
300  2.9900000000000E+00  0.0000000000000E+00  0.0000000000000E+00
301  3.0000000000000E+00  0.0000000000000E+00  0.0000000000000E+00
302  3.0100000000000E+00  0.0000000000000E+00  0.0000000000000E+00
303  3.0200000000000E+00  0.0000000000000E+00  0.0000000000000E+00
304  3.0300000000000E+00  0.0000000000000E+00  0.0000000000000E+00
305  3.0400000000000E+00  0.0000000000000E+00  0.0000000000000E+00
306  3.0500000000000E+00  0.0000000000000E+00  0.0000000000000E+00
307  3.0600000000000E+00  0.0000000000000E+00  0.0000000000000E+00
308  3.0700000000000E+00  0.0000000000000E+00  0.0000000000000E+00
309  3.0800000000000E+00  0.0000000000000E+00  0.0000000000000E+00
310  3.0900000000000E+00  0.0000000000000E+00  0.0000000000000E+00
311  3.1000000000000E+00  0.0000000000000E+00  0.0000000000000E+00
312  3.1100000000000E+00  0.0000000000000E+00  0.0000000000000E+00
313  3.1200000000000E+00  0.0000000000000E+00  0.0000000000000E+00
314  3.1300000000000E+00  0.0000000000000E+00  0.0000000000000E+00
315  3.1400000000000E+00  0.0000000000000E+00  0.0000000000000E+00
316  3.1500000000000E+00  0.0000000000000E+00  0.0000000000000E+00
317  3.1600000000000E+00  0.0000000000000E+00  0.0000000000000E+00
318  3.1700000000000E+00  0.0000000000000E+00  0.0000000000000E+00
319  3.1800000000000E+00  0.0000000000000E+00  0.0000000000000E+00
320  3.1900000000000E+00  0.0000000000000E+00  0.0000000000000E+00
321  3.2000000000000E+00  0.0000000000000E+00  0.0000000000000E+00
322  3.2100000000000E+00  0.0000000000000E+00  0.0000000000000E+00
323  3.2200000000000E+00  0.0000000000000E+00  0.0000000000000E+00
324  3.2300000000000E+00  0.0000000000000E+00  0.0000000000000E+00
325  3.2400000000000E+00  0.0000000000000E+00  0.0000000000000E+00
326  3.2500000000000E+00  0.0000000000000E+00  0.0000000000000E+00
327  3.2600000000000E+00  0.0000000000000E+00  0.0000000000000E+00
328  3.2700000000000E+00  0.0000000000000E+00  0.0000000000000E+00
329  3.2800000000000E+00  0.0000000000000E+00  0.0000000000000E+00
330  3.2900000000000E+00  0.0000000000000E+00  0.0000000000000E+00
331  3.3000000000000E+00  0.0000000000000E+00  0.0000000000000E+00
332  3.3100000000000E+00  0.0000000000000E+00  0.0000000000000E+00
333  3.3200000000000E+00  0.0000000000000E+00  0.0000000000000E+00
334  3.3300000000000E+00  0.0000000000000E+00  0.0000000000000E+00
335  3.3400000000000E+00  0.0000000000000E+00  0.0000000000000E+00
336  3.3500000000000E+00  0.0000000000000E+00  0.0000000000000E+00
337  3.3600000000000E+00  0.0000000000000E+00  0.0000000000000E+00
338  3.3700000000000E+00  0.0000000000000E+00  0.0000000000000E+00
339  3.3800000000000E+00  0.0000000000000E+00  0.0000000000000E+00
340  3.3900000000000E+00  0.0000000000000E+00  0.0000000000000E+00
341  3.4000000000000E+00  0.0000000000000E+00  0.0000000000000E+00
342  3.4100000000000E+00  0.0000000000000E+00  0.0000000000000E+00
343  3.4200000000000E+00  0.0000000000000E+00  0.0000000000000E+00
344  3.4300000000000E+00  0.0000000000000E+00  0.0000000000000E+00
345  3.4400000000000E+00  0.0000000000000E+00  0.0000000000000E+00
346  3.4500000000000E+00  0.0000000000000E+00  0.0000000000000E+00
347  3.4600000000000E+00  0.0000000000000E+00  0.0000000000000E+00
348  3.4700000000000E+00  0.0000000000000E+00  0.0000000000000E+00
349  3.4800000000000E+00  0.0000000000000E+00  0.0000000000000E+00
350  3.4900000000000E+00  0.0000000000000E+00  0.0000000000000E+00
351  3.5000000000000E+00  0.0000000000000E+00  0.0000000000000E+00
352  3.5100000000000E+00  0.0000000000000E+00  0.0000000000000E+00
353  3.5200000000000E+00  0.0000000000000E+00  0.0000000000000E+00
354  3.5300000000000E+00  0.0000000000000E+00  0.0000000000000E+00
355  3.5400000000000E+00  0.0000000000000E+00  0.0000000000000E+00
356  3.5500000000000E+00  0.0000000000000E+00  0.0000000000000E+00
357  3.5600000000000E+00  0.0000000000000E+00  0.0000000000000E+00
358  3.5700000000000E+00  0.0000000000000E+00  0.0000000000000E+00
359  3.5800000000000E+00  0.0000000000000E+00  0.0000000000000E+00
360  3.5900000000000E+00  0.0000000000000E+00  0.0000000000000E+00
361  3.6000000000000E+00  0.0000000000000E+00  0.0000000000000E+00
362  3.6100000000000E+00  0.0000000000000E+00  0.0000000000000E+00
363  3.6200000000000E+00  0.0000000000000E+00  0.0000000000000E+00
364  3.6300000000000E+00  0.0000000000000E+00  0.0000000000000E+00
365  3.6400000000000E+00  0.0000000000000E+00  0.0000000000000E+00
366  3.6500000000000E+00  0.0000000000000E+00  0.0000000000000E+00
367  3.6600000000000E+00  0.0000000000000E+00  0.0000000000000E+00
368  3.6700000000000E+00  0.0000000000000E+00  0.0000000000000E+00
369  3.6800000000000E+00  0.0000000000000E+00  0.0000000000000E+00
370  3.6900000000000E+00  0.0000000000000E+00  0.0000000000000E+00
371  3.7000000000000E+00  0.0000000000000E+00  0.0000000000000E+00
372  3.7100000000000E+00  0.0000000000000E+00  0.0000000000000E+00
373  3.7200000000000E+00  0.0000000000000E+00  0.0000000000000E+00
374  3.7300000000000E+00  0.0000000000000E+00  0.0000000000000E+00
375  3.7400000000000E+00  0.0000000000000E+00  0.0000000000000E+00
376  3.7500000000000E+00  0.0000000000000E+00  0.0000000000000E+00
377  3.7600000000000E+00  0.0000000000000E+00  0.0000000000000E+00
378  3.7700000000000E+00  0.0000000000000E+00  0.0000000000000E+00
379  3.7800000000000E+00  0.0000000000000E+00  0.0000000000000E+00
380  3.7900000000000E+00  0.0000000000000E+00  0.0000000000000E+00
381  3.8000000000000E+00  0.0000000000000E+00  0.0000000000000E+00
382  3.8100000000000E+00  0.0000000000000E+00  0.0000000000000E+00
383  3.8200000000000E+00  0.0000000000000E+00  0.0000000000000E+00
384  3.8300000000000E+00  0.0000000000000E+00  0.0000000000000E+00
385  3.8400000000000E+00  0.0000000000000E+00  0.0000000000000E+00
386  3.8500000000000E+00  0.0000000000000E+00  0.0000000000000E+00
387  3.8600000000000E+00  0.0000000000000E+00  0.0000000000000E+00
388  3.8700000000000E+00  0.0000000000000E+00  0.0000000000000E+00
389  3.8800000000000E+00  0.0000000000000E+00  0.0000000000000E+00
390  3.8900000000000E+00  0.0000000000000E+00  0.0000000000000E+00
391  3.9000000000000E+00  0.0000000000000E+00  0.0000000000000E+00
392  3.9100000000000E+00  0.0000000000000E+00  0.0000000000000E+00
393  3.9200000000000E+00  0.0000000000000E+00  0.0000000000000E+00
394  3.9300000000000E+00  0.0000000000000E+00  0.0000000000000E+00
395  3.9400000000000E+00  0.0000000000000E+00  0.0000000000000E+00
396  3.9500000000000E+00  0.0000000000000E+00  0.0000000000000E+00
397  3.9600000000000E+00  0.0000000000000E+00  0.0000000000000E+00
398  3.9700000000000E+00  0.0000000000000E+00  0.0000000000000E+00
399  3.9800000000000E+00  0.0000000000000E+00  0.0000000000000E+00
400  3.9900000000000E+00  0.0000000000000E+00  0.0000000000000E+00
401  4.0000000000000E+00  0.0000000000000E+00  0.0000000000000E+00
402  4.0100000000000E+00  0.0000000000000E+00  0.0000000000000E+00
403  4.0200000000000E+00  0.0000000000000E+00  0.0000000000000E+00
404  4.0300000000000E+00  0.0000000000000E+00  0.0000000000000E+00
405  4.0400000000000E+00  0.0000000000000E+00  0.0000000000000E+00
406  4.0500000000000E+00  0.0000000000000E+00  0.0000000000000E+00
407  4.0600000000000E+00  0.0000000000000E+00  0.0000000000000E+00
408  4.0700000000000E+00  0.0000000000000E+00  0.0000000000000E+00
409  4.0800000000000E+00  0.0000000000000E+00  0.0000000000000E+00
410  4.0900000000000E+00  0.0000000000000E+00  0.0000000000000E+00
411  4.1000000000000E+00  0.0000000000000E+00  0.0000000000000E+00
412  4.1100000000000E+00  0.0000000000000E+00  0.0000000000000E+00
413  4.1200000000000E+00  0.0000000000000E+00  0.0000000000000E+00
414  4.1300000000000E+00  0.0000000000000E+00  0.0000000000000E+00
415  4.1400000000000E+00  0.0000000000000E+00  0.0000000000000E+00
416  4.1500000000000E+00  0.0000000000000E+00  0.0000000000000E+00
417  4.1600000000000E+00  0.0000000000000E+00  0.0000000000000E+00
418  4.1700000000000E+00  0.0000000000000E+00  0.0000000000000E+00
419  4.1800000000000E+00  0.0000000000000E+00  0.0000000000000E+00
420  4.1900000000000E+00  0.0000000000000E+00  0.0000000000000E+00
421  4.2000000000000E+00  0.0000000000000E+00  0.0000000000000E+00
422  4.2100000000000E+00  0.0000000000000E+00  0.0000000000000E+00
423  4.2200000000000E+00  0.0000000000000E+00  0.0000000000000E+00
424  4.2300000000000E+00  0.0000000000000E+00  0.0000000000000E+00
425  4.2400000000000E+00  0.0000000000000E+00  0.0000000000000E+00
426  4.2500000000000E+00  0.0000000000000E+00  0.0000000000000E+00
427  4.2600000000000E+00  0.0000000000000E+00  0.0000000000000E+00
428  4.2700000000000E+00  0.0000000000000E+00  0.0000000000000E+00
429  4.2800000000000E+00  0.0000000000000E+00  0.0000000000000E+00
430  4.2900000000000E+00  0.0000000000000E+00  0.0000000000000E+00
431  4.3000000000000E+00  0.0000000000000E+00  0.0000000000000E+00
432  4.3100000000000E+00  0.0000000000000E+00  0.0000000000000E+00
433  4.3200000000000E+00  0.0000000000000E+00  0.0000000000000E+00
434  4.3300000000000E+00  0.0000000000000E+00  0.0000000000000E+00
435  4.3400000000000E+00  0.0000000000000E+00  0.0000000000000E+00
436  4.3500000000000E+00  0.0000000000000E+00  0.0000000000000E+00
437  4.3600000000000E+00  0.0000000000000E+00  0.0000000000000E+00
438  4.3700000000000E+00  0.0000000000000E+00  0.0000000000000E+00
439  4.3800000000000E+00  0.0000000000000E+00  0.0000000000000E+00
440  4.3900000000000E+00  0.0000000000000E+00  0.0000000000000E+00
441  4.4000000000000E+00  0.0000000000000E+00  0.0000000000000E+00
442  4.4100000000000E+00  0.0000000000000E+00  0.0000000000000E+00
443  4.4200000000000E+00  0.0000000000000E+00  0.0000000000000E+00