Os    ONCVPSP-3.2.3.1  r_core=   1.51352   1.55006   1.55006   2.27051
76.0000     16.0000      170501    zatom,zion,pspd
8      11   3     4   600     0    pspcod,pspxc,lmax,lloc,mmax,r2well
5.99000000  5.00000000  0.00000000    rchrg fchrg qchrg
2     2     2     2     0    nproj
1     1           extension_switch
0                         7.7807122532726E+00 -1.4537403766703E+00
1  0.0000000000000E+00  3.2912333969293E-10  2.4143457233450E-09
2  1.0000000000000E-02  5.5373580563976E-02 -6.7833643212085E-02
3  2.0000000000000E-02  1.1069003614430E-01 -1.3526233015161E-01
4  3.0000000000000E-02  1.6589195408519E-01 -2.0188482704995E-01
5  4.0000000000000E-02  2.2092135240469E-01 -2.6730729873112E-01
6  5.0000000000000E-02  2.7571941009199E-01 -3.3114689249401E-01
7  6.0000000000000E-02  3.3022621512011E-01 -3.9303518523681E-01
8  7.0000000000000E-02  3.8438053568748E-01 -4.5262145111122E-01
9  8.0000000000000E-02  4.3811961987276E-01 -5.0957570940855E-01
10  9.0000000000000E-02  4.9137902848416E-01 -5.6359151533619E-01
11  1.0000000000000E-01  5.4409250541227E-01 -6.1438845980442E-01
12  1.1000000000000E-01  5.9619188926125E-01 -6.6171434826096E-01
13  1.2000000000000E-01  6.4760706944256E-01 -7.0534703293549E-01
14  1.3000000000000E-01  6.9826598927800E-01 -7.4509587752712E-01
15  1.4000000000000E-01  7.4809469798147E-01 -7.8080283832588E-01
16  1.5000000000000E-01  7.9701745268113E-01 -8.1234315093516E-01
17  1.6000000000000E-01  8.4495687091547E-01 -8.3962561708838E-01
18  1.7000000000000E-01  8.9183413329679E-01 -8.6259249145760E-01
19  1.8000000000000E-01  9.3756923529487E-01 -8.8121897376149E-01
20  1.9000000000000E-01  9.8208128636070E-01 -8.9551231682154E-01
21  2.0000000000000E-01  1.0252888538967E+00 -9.0551056641718E-01
22  2.1000000000000E-01  1.0671103488934E+00 -9.1128095377999E-01
23  2.2000000000000E-01  1.1074644494056E+00 -9.1291796627777E-01
24  2.3000000000000E-01  1.1462705574366E+00 -9.1054112620399E-01
25  2.4000000000000E-01  1.1834492842555E+00 -9.0429251154858E-01
26  2.5000000000000E-01  1.2189229586847E+00 -8.9433405612421E-01
27  2.6000000000000E-01  1.2526161524816E+00 -8.8084466941055E-01
28  2.7000000000000E-01  1.2844562165970E+00 -8.6401721891346E-01
29  2.8000000000000E-01  1.3143738218354E+00 -8.4405541968000E-01
30  2.9000000000000E-01  1.3423034972636E+00 -8.2117067683768E-01
31  3.0000000000000E-01  1.3681841596310E+00 -7.9557892761451E-01
32  3.1000000000000E-01  1.3919596270635E+00 -7.6749752923623E-01
33  3.2000000000000E-01  1.4135791103840E+00 -7.3714223838404E-01
34  3.3000000000000E-01  1.4329976755980E+00 -7.0472432653609E-01
35  3.4000000000000E-01  1.4501766713450E+00 -6.7044787352575E-01
36  3.5000000000000E-01  1.4650841154765E+00 -6.3450727904879E-01
37  3.6000000000000E-01  1.4776950353506E+00 -5.9708502867558E-01
38  3.7000000000000E-01  1.4879917569480E+00 -5.5834974721055E-01
39  3.8000000000000E-01  1.4959641384911E+00 -5.1845456803852E-01
40  3.9000000000000E-01  1.5016097448909E+00 -4.7753584245846E-01
41  4.0000000000000E-01  1.5049339600470E+00 -4.3571220799375E-01
42  4.1000000000000E-01  1.5059500347629E+00 -3.9308402934724E-01
43  4.2000000000000E-01  1.5046790688253E+00 -3.4973322011351E-01
44  4.3000000000000E-01  1.5011499265950E+00 -3.0572344764262E-01
45  4.4000000000000E-01  1.4953990862858E+00 -2.6110071765000E-01
46  4.5000000000000E-01  1.4874704239278E+00 -2.1589432936299E-01
47  4.6000000000000E-01  1.4774149338395E+00 -1.7011818627009E-01
48  4.7000000000000E-01  1.4652903882324E+00 -1.2377244197314E-01
49  4.8000000000000E-01  1.4511609393523E+00 -7.6845455314541E-02
50  4.9000000000000E-01  1.4350966682999E+00 -2.9316023939732E-02
51  5.0000000000000E-01  1.4171730853653E+00  1.8844139166142E-02
52  5.1000000000000E-01  1.3974705873418E+00  6.7667725793703E-02
53  5.2000000000000E-01  1.3760738778565E+00  1.1718899254462E-01
54  5.3000000000000E-01  1.3530713572421E+00  1.6744080711472E-01
55  5.4000000000000E-01  1.3285544888881E+00  2.1845162958638E-01
56  5.5000000000000E-01  1.3026171493309E+00  2.7024247924980E-01
57  5.6000000000000E-01  1.2753549695712E+00  3.2282393852793E-01
58  5.7000000000000E-01  1.2468646752401E+00  3.7619324590180E-01
59  5.8000000000000E-01  1.2172434332658E+00  4.3033152931533E-01
60  5.9000000000000E-01  1.1865882126276E+00  4.8520123036509E-01
61  6.0000000000000E-01  1.1549951666111E+00  5.4074376767353E-01
62  6.1000000000000E-01  1.1225590437125E+00  5.9687748519309E-01
63  6.2000000000000E-01  1.0893726339714E+00  6.5349592786303E-01
64  6.3000000000000E-01  1.0555262570559E+00  7.1046648301345E-01
65  6.4000000000000E-01  1.0211072978752E+00  7.6762942130058E-01
66  6.5000000000000E-01  9.8619979487052E-01  8.2479736576137E-01
67  6.6000000000000E-01  9.5088408543226E-01  8.8175521187214E-01
68  6.7000000000000E-01  9.1523651212953E-01  9.3826051538814E-01
69  6.8000000000000E-01  8.7932919261863E-01  9.9404435826118E-01
70  6.9000000000000E-01  8.4322985523213E-01  1.0488126961812E+00
71  7.0000000000000E-01  8.0700174135559E-01  1.1022481843689E+00
72  7.1000000000000E-01  7.7070357478299E-01  1.1540124712537E+00
73  7.2000000000000E-01  7.3438959731461E-01  1.2037489426521E+00
74  7.3000000000000E-01  6.9810966893940E-01  1.2510858921762E+00
75  7.4000000000000E-01  6.6190943003943E-01  1.2956400869188E+00
76  7.5000000000000E-01  6.2583052217664E-01  1.3370206910621E+00
77  7.6000000000000E-01  5.8991086318585E-01  1.3748335040571E+00
78  7.7000000000000E-01  5.5418497151842E-01  1.4086854645180E+00
79  7.8000000000000E-01  5.1868433405776E-01  1.4381893659907E+00
80  7.9000000000000E-01  4.8343781098796E-01  1.4629687264660E+00
81  8.0000000000000E-01  4.4847207073536E-01  1.4826627498944E+00
82  8.1000000000000E-01  4.1381204753640E-01  1.4969313151348E+00
83  8.2000000000000E-01  3.7948141381818E-01  1.5054599257605E+00
84  8.3000000000000E-01  3.4550305931786E-01  1.5079645530142E+00
85  8.4000000000000E-01  3.1189956871693E-01  1.5041963039568E+00
86  8.5000000000000E-01  2.7869368953156E-01  1.4939458475333E+00
87  8.6000000000000E-01  2.4590878208009E-01  1.4770475328758E+00
88  8.7000000000000E-01  2.1356924354600E-01  1.4533831366736E+00
89  8.8000000000000E-01  1.8170089846541E-01  1.4228851798558E+00
90  8.9000000000000E-01  1.5033134839181E-01  1.3855397581093E+00
91  9.0000000000000E-01  1.1949027402050E-01  1.3413888358597E+00
92  9.1000000000000E-01  8.9209683686900E-02  1.2905319592168E+00
93  9.2000000000000E-01  5.9524102877774E-02  1.2331273499665E+00
94  9.3000000000000E-01  3.0470700204158E-02  1.1693923499001E+00
95  9.4000000000000E-01  2.0893461691713E-03  1.0996031925203E+00
96  9.5000000000000E-01 -2.5577397989319E-02  1.0240940873573E+00
97  9.6000000000000E-01 -5.2484363098974E-02  9.4325561070464E-01
98  9.7000000000000E-01 -7.8583927179701E-02  8.5753240534466E-01
99  9.8000000000000E-01 -1.0382624252803E-01  7.6742020067907E-01
100  9.9000000000000E-01 -1.2815953329970E-01  6.7346217376246E-01
101  1.0000000000000E+00 -1.5153046108279E-01  5.7624468040342E-01
102  1.0100000000000E+00 -1.7388455489920E-01  4.7639239414877E-01
103  1.0200000000000E+00 -1.9516670106312E-01  3.7456289918540E-01
104  1.0300000000000E+00 -2.1532168734907E-01  2.7144079106953E-01
105  1.0400000000000E+00 -2.3429479504085E-01  1.6773134625162E-01
106  1.0500000000000E+00 -2.5203243159564E-01  6.4153827998259E-02
107  1.0600000000000E+00 -2.6848279590140E-01 -3.8565497772775E-02
108  1.0700000000000E+00 -2.8359656748972E-01 -1.3970055848647E-01
109  1.0800000000000E+00 -2.9732761051688E-01 -2.3853280033898E-01
110  1.0900000000000E+00 -3.0963368292704E-01 -3.3435855788312E-01
111  1.1000000000000E+00 -3.2047714090853E-01 -4.2649638039983E-01
112  1.1100000000000E+00 -3.2982562858718E-01 -5.1429422680426E-01
113  1.1200000000000E+00 -3.3765274288272E-01 -5.9713644109262E-01
114  1.1300000000000E+00 -3.4393866360845E-01 -6.7445042213191E-01
115  1.1400000000000E+00 -3.4867073902507E-01 -7.4571290300897E-01
116  1.1500000000000E+00 -3.5184401755990E-01 -8.1045575989047E-01
117  1.1600000000000E+00 -3.5346171684028E-01 -8.6827127428906E-01
118  1.1700000000000E+00 -3.5353562195915E-01 -9.1881677947779E-01
119  1.1800000000000E+00 -3.5208640533480E-01 -9.6181862574753E-01
120  1.1900000000000E+00 -3.4914386177011E-01 -9.9707541001498E-01
121  1.2000000000000E+00 -3.4474705314784E-01 -1.0244604224169E+00
122  1.2100000000000E+00 -3.3894435812077E-01 -1.0439232704508E+00
123  1.2200000000000E+00 -3.3179342335851E-01 -1.0554906515125E+00
124  1.2300000000000E+00 -3.2336101431559E-01 -1.0592662565548E+00
125  1.2400000000000E+00 -3.1372276458548E-01 -1.0554297968765E+00
126  1.2500000000000E+00 -3.0296282376276E-01 -1.0442351533233E+00
127  1.2600000000000E+00 -2.9117340586030E-01 -1.0260076650260E+00
128  1.2700000000000E+00 -2.7845424120804E-01 -1.0011405821266E+00
129  1.2800000000000E+00 -2.6491193535534E-01 -9.7009071198244E-01
130  1.2900000000000E+00 -2.5065924107729E-01 -9.3337330983690E-01
131  1.3000000000000E+00 -2.3581424992957E-01 -8.9155626777021E-01
132  1.3100000000000E+00 -2.2049951043789E-01 -8.4525366112911E-01
133  1.3200000000000E+00 -2.0484108245718E-01 -7.9511873193595E-01
134  1.3300000000000E+00 -1.8896753691554E-01 -7.4183638609520E-01
135  1.3400000000000E+00 -1.7300891122376E-01 -6.8611529007803E-01
136  1.3500000000000E+00 -1.5709563209813E-01 -6.2867966483289E-01
137  1.3600000000000E+00 -1.4135741694203E-01 -5.7026086970334E-01
138  1.3700000000000E+00 -1.2592216634050E-01 -5.1158888075223E-01
139  1.3800000000000E+00 -1.1091485996586E-01 -4.5338376568974E-01
140  1.3900000000000E+00 -9.6456468490981E-02 -3.9634726013738E-01
141  1.4000000000000E+00 -8.2662894216271E-02 -3.4115455071329E-01
142  1.4100000000000E+00 -6.9643952375898E-02 -2.8844636435019E-01
143  1.4200000000000E+00 -5.7502406092617E-02 -2.3882147151083E-01
144  1.4300000000000E+00 -4.6333065118642E-02 -1.9282968747828E-01
145  1.4400000000000E+00 -3.6221961037629E-02 -1.5096547694064E-01
146  1.4500000000000E+00 -2.7245607783341E-02 -1.1366223540779E-01
147  1.4600000000000E+00 -1.9470357006417E-02 -8.1287326649082E-02
148  1.4700000000000E+00 -1.2956743196549E-02 -5.4158540091099E-02
149  1.4800000000000E+00 -7.7246132310898E-03 -3.2394359490041E-02
150  1.4900000000000E+00 -3.8232006876216E-03 -1.6211548347423E-02
151  1.5000000000000E+00 -1.3849454660636E-03 -6.1726443708987E-03
152  1.5100000000000E+00 -2.5301110238355E-04 -1.5272976850548E-03
153  1.5200000000000E+00  5.6935775144466E-05 -7.3413763828213E-05
154  1.5300000000000E+00  1.5162218249915E-05  2.6084719957709E-05
155  1.5400000000000E+00 -2.5840880539294E-05 -5.7208569551917E-05
156  1.5500000000000E+00 -2.2605513085489E-07 -5.5379325846054E-07
157  1.5600000000000E+00  4.2755571420481E-06  6.9237405078667E-06
158  1.5700000000000E+00  5.8328396787487E-08  5.7857033934925E-07
159  1.5800000000000E+00  2.0657113936558E-07  2.0490179875499E-06
160  1.5900000000000E+00  0.0000000000000E+00  0.0000000000000E+00
161  1.6000000000000E+00  0.0000000000000E+00  0.0000000000000E+00
162  1.6100000000000E+00  0.0000000000000E+00  0.0000000000000E+00
163  1.6200000000000E+00  0.0000000000000E+00  0.0000000000000E+00
164  1.6300000000000E+00  0.0000000000000E+00  0.0000000000000E+00
165  1.6400000000000E+00  0.0000000000000E+00  0.0000000000000E+00
166  1.6500000000000E+00  0.0000000000000E+00  0.0000000000000E+00
167  1.6600000000000E+00  0.0000000000000E+00  0.0000000000000E+00
168  1.6700000000000E+00  0.0000000000000E+00  0.0000000000000E+00
169  1.6800000000000E+00  0.0000000000000E+00  0.0000000000000E+00
170  1.6900000000000E+00  0.0000000000000E+00  0.0000000000000E+00
171  1.7000000000000E+00  0.0000000000000E+00  0.0000000000000E+00
172  1.7100000000000E+00  0.0000000000000E+00  0.0000000000000E+00
173  1.7200000000000E+00  0.0000000000000E+00  0.0000000000000E+00
174  1.7300000000000E+00  0.0000000000000E+00  0.0000000000000E+00
175  1.7400000000000E+00  0.0000000000000E+00  0.0000000000000E+00
176  1.7500000000000E+00  0.0000000000000E+00  0.0000000000000E+00
177  1.7600000000000E+00  0.0000000000000E+00  0.0000000000000E+00
178  1.7700000000000E+00  0.0000000000000E+00  0.0000000000000E+00
179  1.7800000000000E+00  0.0000000000000E+00  0.0000000000000E+00
180  1.7900000000000E+00  0.0000000000000E+00  0.0000000000000E+00
181  1.8000000000000E+00  0.0000000000000E+00  0.0000000000000E+00
182  1.8100000000000E+00  0.0000000000000E+00  0.0000000000000E+00
183  1.8200000000000E+00  0.0000000000000E+00  0.0000000000000E+00
184  1.8300000000000E+00  0.0000000000000E+00  0.0000000000000E+00
185  1.8400000000000E+00  0.0000000000000E+00  0.0000000000000E+00
186  1.8500000000000E+00  0.0000000000000E+00  0.0000000000000E+00
187  1.8600000000000E+00  0.0000000000000E+00  0.0000000000000E+00
188  1.8700000000000E+00  0.0000000000000E+00  0.0000000000000E+00
189  1.8800000000000E+00  0.0000000000000E+00  0.0000000000000E+00
190  1.8900000000000E+00  0.0000000000000E+00  0.0000000000000E+00
191  1.9000000000000E+00  0.0000000000000E+00  0.0000000000000E+00
192  1.9100000000000E+00  0.0000000000000E+00  0.0000000000000E+00
193  1.9200000000000E+00  0.0000000000000E+00  0.0000000000000E+00
194  1.9300000000000E+00  0.0000000000000E+00  0.0000000000000E+00
195  1.9400000000000E+00  0.0000000000000E+00  0.0000000000000E+00
196  1.9500000000000E+00  0.0000000000000E+00  0.0000000000000E+00
197  1.9600000000000E+00  0.0000000000000E+00  0.0000000000000E+00
198  1.9700000000000E+00  0.0000000000000E+00  0.0000000000000E+00
199  1.9800000000000E+00  0.0000000000000E+00  0.0000000000000E+00
200  1.9900000000000E+00  0.0000000000000E+00  0.0000000000000E+00
201  2.0000000000000E+00  0.0000000000000E+00  0.0000000000000E+00
202  2.0100000000000E+00  0.0000000000000E+00  0.0000000000000E+00
203  2.0200000000000E+00  0.0000000000000E+00  0.0000000000000E+00
204  2.0300000000000E+00  0.0000000000000E+00  0.0000000000000E+00
205  2.0400000000000E+00  0.0000000000000E+00  0.0000000000000E+00
206  2.0500000000000E+00  0.0000000000000E+00  0.0000000000000E+00
207  2.0600000000000E+00  0.0000000000000E+00  0.0000000000000E+00
208  2.0700000000000E+00  0.0000000000000E+00  0.0000000000000E+00
209  2.0800000000000E+00  0.0000000000000E+00  0.0000000000000E+00
210  2.0900000000000E+00  0.0000000000000E+00  0.0000000000000E+00
211  2.1000000000000E+00  0.0000000000000E+00  0.0000000000000E+00
212  2.1100000000000E+00  0.0000000000000E+00  0.0000000000000E+00
213  2.1200000000000E+00  0.0000000000000E+00  0.0000000000000E+00
214  2.1300000000000E+00  0.0000000000000E+00  0.0000000000000E+00
215  2.1400000000000E+00  0.0000000000000E+00  0.0000000000000E+00
216  2.1500000000000E+00  0.0000000000000E+00  0.0000000000000E+00
217  2.1600000000000E+00  0.0000000000000E+00  0.0000000000000E+00
218  2.1700000000000E+00  0.0000000000000E+00  0.0000000000000E+00
219  2.1800000000000E+00  0.0000000000000E+00  0.0000000000000E+00
220  2.1900000000000E+00  0.0000000000000E+00  0.0000000000000E+00
221  2.2000000000000E+00  0.0000000000000E+00  0.0000000000000E+00
222  2.2100000000000E+00  0.0000000000000E+00  0.0000000000000E+00
223  2.2200000000000E+00  0.0000000000000E+00  0.0000000000000E+00
224  2.2300000000000E+00  0.0000000000000E+00  0.0000000000000E+00
225  2.2400000000000E+00  0.0000000000000E+00  0.0000000000000E+00
226  2.2500000000000E+00  0.0000000000000E+00  0.0000000000000E+00
227  2.2600000000000E+00  0.0000000000000E+00  0.0000000000000E+00
228  2.2700000000000E+00  0.0000000000000E+00  0.0000000000000E+00
229  2.2800000000000E+00  0.0000000000000E+00  0.0000000000000E+00
230  2.2900000000000E+00  0.0000000000000E+00  0.0000000000000E+00
231  2.3000000000000E+00  0.0000000000000E+00  0.0000000000000E+00
232  2.3100000000000E+00  0.0000000000000E+00  0.0000000000000E+00
233  2.3200000000000E+00  0.0000000000000E+00  0.0000000000000E+00
234  2.3300000000000E+00  0.0000000000000E+00  0.0000000000000E+00
235  2.3400000000000E+00  0.0000000000000E+00  0.0000000000000E+00
236  2.3500000000000E+00  0.0000000000000E+00  0.0000000000000E+00
237  2.3600000000000E+00  0.0000000000000E+00  0.0000000000000E+00
238  2.3700000000000E+00  0.0000000000000E+00  0.0000000000000E+00
239  2.3800000000000E+00  0.0000000000000E+00  0.0000000000000E+00
240  2.3900000000000E+00  0.0000000000000E+00  0.0000000000000E+00
241  2.4000000000000E+00  0.0000000000000E+00  0.0000000000000E+00
242  2.4100000000000E+00  0.0000000000000E+00  0.0000000000000E+00
243  2.4200000000000E+00  0.0000000000000E+00  0.0000000000000E+00
244  2.4300000000000E+00  0.0000000000000E+00  0.0000000000000E+00
245  2.4400000000000E+00  0.0000000000000E+00  0.0000000000000E+00
246  2.4500000000000E+00  0.0000000000000E+00  0.0000000000000E+00
247  2.4600000000000E+00  0.0000000000000E+00  0.0000000000000E+00
248  2.4700000000000E+00  0.0000000000000E+00  0.0000000000000E+00
249  2.4800000000000E+00  0.0000000000000E+00  0.0000000000000E+00
250  2.4900000000000E+00  0.0000000000000E+00  0.0000000000000E+00
251  2.5000000000000E+00  0.0000000000000E+00  0.0000000000000E+00
252  2.5100000000000E+00  0.0000000000000E+00  0.0000000000000E+00
253  2.5200000000000E+00  0.0000000000000E+00  0.0000000000000E+00
254  2.5300000000000E+00  0.0000000000000E+00  0.0000000000000E+00
255  2.5400000000000E+00  0.0000000000000E+00  0.0000000000000E+00
256  2.5500000000000E+00  0.0000000000000E+00  0.0000000000000E+00
257  2.5600000000000E+00  0.0000000000000E+00  0.0000000000000E+00
258  2.5700000000000E+00  0.0000000000000E+00  0.0000000000000E+00
259  2.5800000000000E+00  0.0000000000000E+00  0.0000000000000E+00
260  2.5900000000000E+00  0.0000000000000E+00  0.0000000000000E+00
261  2.6000000000000E+00  0.0000000000000E+00  0.0000000000000E+00
262  2.6100000000000E+00  0.0000000000000E+00  0.0000000000000E+00
263  2.6200000000000E+00  0.0000000000000E+00  0.0000000000000E+00
264  2.6300000000000E+00  0.0000000000000E+00  0.0000000000000E+00
265  2.6400000000000E+00  0.0000000000000E+00  0.0000000000000E+00
266  2.6500000000000E+00  0.0000000000000E+00  0.0000000000000E+00
267  2.6600000000000E+00  0.0000000000000E+00  0.0000000000000E+00
268  2.6700000000000E+00  0.0000000000000E+00  0.0000000000000E+00
269  2.6800000000000E+00  0.0000000000000E+00  0.0000000000000E+00
270  2.6900000000000E+00  0.0000000000000E+00  0.0000000000000E+00
271  2.7000000000000E+00  0.0000000000000E+00  0.0000000000000E+00
272  2.7100000000000E+00  0.0000000000000E+00  0.0000000000000E+00
273  2.7200000000000E+00  0.0000000000000E+00  0.0000000000000E+00
274  2.7300000000000E+00  0.0000000000000E+00  0.0000000000000E+00
275  2.7400000000000E+00  0.0000000000000E+00  0.0000000000000E+00
276  2.7500000000000E+00  0.0000000000000E+00  0.0000000000000E+00
277  2.7600000000000E+00  0.0000000000000E+00  0.0000000000000E+00
278  2.7700000000000E+00  0.0000000000000E+00  0.0000000000000E+00
279  2.7800000000000E+00  0.0000000000000E+00  0.0000000000000E+00
280  2.7900000000000E+00  0.0000000000000E+00  0.0000000000000E+00
281  2.8000000000000E+00  0.0000000000000E+00  0.0000000000000E+00
282  2.8100000000000E+00  0.0000000000000E+00  0.0000000000000E+00
283  2.8200000000000E+00  0.0000000000000E+00  0.0000000000000E+00
284  2.8300000000000E+00  0.0000000000000E+00  0.0000000000000E+00
285  2.8400000000000E+00  0.0000000000000E+00  0.0000000000000E+00
286  2.8500000000000E+00  0.0000000000000E+00  0.0000000000000E+00
287  2.8600000000000E+00  0.0000000000000E+00  0.0000000000000E+00
288  2.8700000000000E+00  0.0000000000000E+00  0.0000000000000E+00
289  2.8800000000000E+00  0.0000000000000E+00  0.0000000000000E+00
290  2.8900000000000E+00  0.0000000000000E+00  0.0000000000000E+00
291  2.9000000000000E+00  0.0000000000000E+00  0.0000000000000E+00
292  2.9100000000000E+00  0.0000000000000E+00  0.0000000000000E+00
293  2.9200000000000E+00  0.0000000000000E+00  0.0000000000000E+00
294  2.9300000000000E+00  0.0000000000000E+00  0.0000000000000E+00
295  2.9400000000000E+00  0.0000000000000E+00  0.0000000000000E+00
296  2.9500000000000E+00  0.0000000000000E+00  0.0000000000000E+00
297  2.9600000000000E+00  0.0000000000000E+00  0.0000000000000E+00
298  2.9700000000000E+00  0.0000000000000E+00  0.0000000000000E+00
299  2.9800000000000E+00  0.0000000000000E+00  0.0000000000000E+00
300  2.9900000000000E+00  0.0000000000000E+00  0.0000000000000E+00
301  3.0000000000000E+00  0.0000000000000E+00  0.0000000000000E+00
302  3.0100000000000E+00  0.0000000000000E+00  0.0000000000000E+00
303  3.0200000000000E+00  0.0000000000000E+00  0.0000000000000E+00
304  3.0300000000000E+00  0.0000000000000E+00  0.0000000000000E+00
305  3.0400000000000E+00  0.0000000000000E+00  0.0000000000000E+00
306  3.0500000000000E+00  0.0000000000000E+00  0.0000000000000E+00
307  3.0600000000000E+00  0.0000000000000E+00  0.0000000000000E+00
308  3.0700000000000E+00  0.0000000000000E+00  0.0000000000000E+00
309  3.0800000000000E+00  0.0000000000000E+00  0.0000000000000E+00
310  3.0900000000000E+00  0.0000000000000E+00  0.0000000000000E+00
311  3.1000000000000E+00  0.0000000000000E+00  0.0000000000000E+00
312  3.1100000000000E+00  0.0000000000000E+00  0.0000000000000E+00
313  3.1200000000000E+00  0.0000000000000E+00  0.0000000000000E+00
314  3.1300000000000E+00  0.0000000000000E+00  0.0000000000000E+00
315  3.1400000000000E+00  0.0000000000000E+00  0.0000000000000E+00
316  3.1500000000000E+00  0.0000000000000E+00  0.0000000000000E+00
317  3.1600000000000E+00  0.0000000000000E+00  0.0000000000000E+00
318  3.1700000000000E+00  0.0000000000000E+00  0.0000000000000E+00
319  3.1800000000000E+00  0.0000000000000E+00  0.0000000000000E+00
320  3.1900000000000E+00  0.0000000000000E+00  0.0000000000000E+00
321  3.2000000000000E+00  0.0000000000000E+00  0.0000000000000E+00
322  3.2100000000000E+00  0.0000000000000E+00  0.0000000000000E+00
323  3.2200000000000E+00  0.0000000000000E+00  0.0000000000000E+00
324  3.2300000000000E+00  0.0000000000000E+00  0.0000000000000E+00
325  3.2400000000000E+00  0.0000000000000E+00  0.0000000000000E+00
326  3.2500000000000E+00  0.0000000000000E+00  0.0000000000000E+00
327  3.2600000000000E+00  0.0000000000000E+00  0.0000000000000E+00
328  3.2700000000000E+00  0.0000000000000E+00  0.0000000000000E+00
329  3.2800000000000E+00  0.0000000000000E+00  0.0000000000000E+00
330  3.2900000000000E+00  0.0000000000000E+00  0.0000000000000E+00
331  3.3000000000000E+00  0.0000000000000E+00  0.0000000000000E+00
332  3.3100000000000E+00  0.0000000000000E+00  0.0000000000000E+00
333  3.3200000000000E+00  0.0000000000000E+00  0.0000000000000E+00
334  3.3300000000000E+00  0.0000000000000E+00  0.0000000000000E+00
335  3.3400000000000E+00  0.0000000000000E+00  0.0000000000000E+00
336  3.3500000000000E+00  0.0000000000000E+00  0.0000000000000E+00
337  3.3600000000000E+00  0.0000000000000E+00  0.0000000000000E+00
338  3.3700000000000E+00  0.0000000000000E+00  0.0000000000000E+00
339  3.3800000000000E+00  0.0000000000000E+00  0.0000000000000E+00
340  3.3900000000000E+00  0.0000000000000E+00  0.0000000000000E+00
341  3.4000000000000E+00  0.0000000000000E+00  0.0000000000000E+00
342  3.4100000000000E+00  0.0000000000000E+00  0.0000000000000E+00
343  3.4200000000000E+00  0.0000000000000E+00  0.0000000000000E+00
344  3.4300000000000E+00  0.0000000000000E+00  0.0000000000000E+00
345  3.4400000000000E+00  0.0000000000000E+00  0.0000000000000E+00
346  3.4500000000000E+00  0.0000000000000E+00  0.0000000000000E+00
347  3.4600000000000E+00  0.0000000000000E+00  0.0000000000000E+00
348  3.4700000000000E+00  0.0000000000000E+00  0.0000000000000E+00
349  3.4800000000000E+00  0.0000000000000E+00  0.0000000000000E+00
350  3.4900000000000E+00  0.0000000000000E+00  0.0000000000000E+00
351  3.5000000000000E+00  0.0000000000000E+00  0.0000000000000E+00
352  3.5100000000000E+00  0.0000000000000E+00  0.0000000000000E+00
353  3.5200000000000E+00  0.0000000000000E+00  0.0000000000000E+00
354  3.5300000000000E+00  0.0000000000000E+00  0.0000000000000E+00
355  3.5400000000000E+00  0.0000000000000E+00  0.0000000000000E+00
356  3.5500000000000E+00  0.0000000000000E+00  0.0000000000000E+00
357  3.5600000000000E+00  0.0000000000000E+00  0.0000000000000E+00
358  3.5700000000000E+00  0.0000000000000E+00  0.0000000000000E+00
359  3.5800000000000E+00  0.0000000000000E+00  0.0000000000000E+00
360  3.5900000000000E+00  0.0000000000000E+00  0.0000000000000E+00
361  3.6000000000000E+00  0.0000000000000E+00  0.0000000000000E+00
362  3.6100000000000E+00  0.0000000000000E+00  0.0000000000000E+00
363  3.6200000000000E+00  0.0000000000000E+00  0.0000000000000E+00
364  3.6300000000000E+00  0.0000000000000E+00  0.0000000000000E+00
365  3.6400000000000E+00  0.0000000000000E+00  0.0000000000000E+00
366  3.6500000000000E+00  0.0000000000000E+00  0.0000000000000E+00
367  3.6600000000000E+00  0.0000000000000E+00  0.0000000000000E+00
368  3.6700000000000E+00  0.0000000000000E+00  0.0000000000000E+00
369  3.6800000000000E+00  0.0000000000000E+00  0.0000000000000E+00
370  3.6900000000000E+00  0.0000000000000E+00  0.0000000000000E+00
371  3.7000000000000E+00  0.0000000000000E+00  0.0000000000000E+00
372  3.7100000000000E+00  0.0000000000000E+00  0.0000000000000E+00
373  3.7200000000000E+00  0.0000000000000E+00  0.0000000000000E+00
374  3.7300000000000E+00  0.0000000000000E+00  0.0000000000000E+00
375  3.7400000000000E+00  0.0000000000000E+00  0.0000000000000E+00
376  3.7500000000000E+00  0.0000000000000E+00  0.0000000000000E+00
377  3.7600000000000E+00  0.0000000000000E+00  0.0000000000000E+00
378  3.7700000000000E+00  0.0000000000000E+00  0.0000000000000E+00
379  3.7800000000000E+00  0.0000000000000E+00  0.0000000000000E+00
380  3.7900000000000E+00  0.0000000000000E+00  0.0000000000000E+00
381  3.8000000000000E+00  0.0000000000000E+00  0.0000000000000E+00
382  3.8100000000000E+00  0.0000000000000E+00  0.0000000000000E+00
383  3.8200000000000E+00  0.0000000000000E+00  0.0000000000000E+00
384  3.8300000000000E+00  0.0000000000000E+00  0.0000000000000E+00
385  3.8400000000000E+00  0.0000000000000E+00  0.0000000000000E+00
386  3.8500000000000E+00  0.0000000000000E+00  0.0000000000000E+00
387  3.8600000000000E+00  0.0000000000000E+00  0.0000000000000E+00
388  3.8700000000000E+00  0.0000000000000E+00  0.0000000000000E+00
389  3.8800000000000E+00  0.0000000000000E+00  0.0000000000000E+00
390  3.8900000000000E+00  0.0000000000000E+00  0.0000000000000E+00
391  3.9000000000000E+00  0.0000000000000E+00  0.0000000000000E+00
392  3.9100000000000E+00  0.0000000000000E+00  0.0000000000000E+00
393  3.9200000000000E+00  0.0000000000000E+00  0.0000000000000E+00
394  3.9300000000000E+00  0.0000000000000E+00  0.0000000000000E+00
395  3.9400000000000E+00  0.0000000000000E+00  0.0000000000000E+00
396  3.9500000000000E+00  0.0000000000000E+00  0.0000000000000E+00
397  3.9600000000000E+00  0.0000000000000E+00  0.0000000000000E+00
398  3.9700000000000E+00  0.0000000000000E+00  0.0000000000000E+00
399  3.9800000000000E+00  0.0000000000000E+00  0.0000000000000E+00
400  3.9900000000000E+00  0.0000000000000E+00  0.0000000000000E+00
401  4.0000000000000E+00  0.0000000000000E+00  0.0000000000000E+00
402  4.0100000000000E+00  0.0000000000000E+00  0.0000000000000E+00
403  4.0200000000000E+00  0.0000000000000E+00  0.0000000000000E+00
404  4.0300000000000E+00  0.0000000000000E+00  0.0000000000000E+00
405  4.0400000000000E+00  0.0000000000000E+00  0.0000000000000E+00
406  4.0500000000000E+00  0.0000000000000E+00  0.0000000000000E+00
407  4.0600000000000E+00  0.0000000000000E+00  0.0000000000000E+00
408  4.0700000000000E+00  0.0000000000000E+00  0.0000000000000E+00
409  4.0800000000000E+00  0.0000000000000E+00  0.0000000000000E+00
410  4.0900000000000E+00  0.0000000000000E+00  0.0000000000000E+00
411  4.1000000000000E+00  0.0000000000000E+00  0.0000000000000E+00
412  4.1100000000000E+00  0.0000000000000E+00  0.0000000000000E+00
413  4.1200000000000E+00  0.0000000000000E+00  0.0000000000000E+00
414  4.1300000000000E+00  0.0000000000000E+00  0.0000000000000E+00
415  4.1400000000000E+00  0.0000000000000E+00  0.0000000000000E+00
416  4.1500000000000E+00  0.0000000000000E+00  0.0000000000000E+00
417  4.1600000000000E+00  0.0000000000000E+00  0.0000000000000E+00
418  4.1700000000000E+00  0.0000000000000E+00  0.0000000000000E+00
419  4.1800000000000E+00  0.0000000000000E+00  0.0000000000000E+00
420  4.1900000000000E+00  0.0000000000000E+00  0.0000000000000E+00
421  4.2000000000000E+00  0.0000000000000E+00  0.0000000000000E+00
422  4.2100000000000E+00  0.0000000000000E+00  0.0000000000000E+00
423  4.2200000000000E+00  0.0000000000000E+00  0.0000000000000E+00
424  4.2300000000000E+00  0.0000000000000E+00  0.0000000000000E+00
425  4.2400000000000E+00  0.0000000000000E+00  0.0000000000000E+00
426  4.2500000000000E+00  0.0000000000000E+00  0.0000000000000E+00
427  4.2600000000000E+00  0.0000000000000E+00  0.0000000000000E+00
428  4.2700000000000E+00  0.0000000000000E+00  0.0000000000000E+00
429  4.2800000000000E+00  0.0000000000000E+00  0.0000000000000E+00
430  4.2900000000000E+00  0.0000000000000E+00  0.0000000000000E+00
431  4.3000000000000E+00  0.0000000000000E+00  0.0000000000000E+00
432  4.3100000000000E+00  0.0000000000000E+00  0.0000000000000E+00
433  4.3200000000000E+00  0.0000000000000E+00  0.0000000000000E+00
434  4.3300000000000E+00  0.0000000000000E+00  0.0000000000000E+00
435  4.3400000000000E+00  0.0000000000000E+00  0.0000000000000E+00
436  4.3500000000000E+00  0.0000000000000E+00  0.0000000000000E+00
437  4.3600000000000E+00  0.0000000000000E+00  0.0000000000000E+00
438  4.3700000000000E+00  0.0000000000000E+00  0.0000000000000E+00
439  4.3800000000000E+00  0.0000000000000E+00  0.0000000000000E+00
440  4.3900000000000E+00  0.0000000000000E+00  0.0000000000000E+00
441  4.4000000000000E+00  0.0000000000000E+00  0.0000000000000E+00
442  4.4100000000000E+00  0.0000000000000E+00  0.0000000000000E+00
443  4.4200000000000E+00  0.0000000000000E+00  0.0000000000000E+00