Ir    ONCVPSP-3.2.3.1  r_core=   1.60470   1.60470   1.51179   2.26792
77.0000     17.0000      170501    zatom,zion,pspd
8      11   3     4   500     0    pspcod,pspxc,lmax,lloc,mmax,r2well
4.99000000  5.00000000  0.00000000    rchrg fchrg qchrg
2     2     2     2     0    nproj
1     1           extension_switch
0                         8.9911623005530E+01  2.8058099221628E+00
1  0.0000000000000E+00 -3.6948355486288E-10  4.6495297022220E-10
2  1.0000000000000E-02  7.8909168127326E-02 -3.6503177976687E-04
3  2.0000000000000E-02  1.5758965219728E-01 -6.0572488950442E-04
4  3.0000000000000E-02  2.3581381911731E-01 -5.9875921568483E-04
5  4.0000000000000E-02  3.1335612914982E-01 -2.2284138713079E-04
6  5.0000000000000E-02  3.8999416124791E-01  6.4030766078010E-04
7  6.0000000000000E-02  4.6550961304624E-01  2.1049957565690E-03
8  7.0000000000000E-02  5.3968926749755E-01  4.2806428572995E-03
9  8.0000000000000E-02  6.1232591851457E-01  7.2709139019901E-03
10  9.0000000000000E-02  6.8321924843113E-01  1.1172909777355E-02
11  1.0000000000000E-01  7.5217665062846E-01  1.6076424348993E-02
12  1.1000000000000E-01  8.1901399127863E-01  2.2063274748965E-02
13  1.2000000000000E-01  8.8355630482743E-01  2.9206711265888E-02
14  1.3000000000000E-01  9.4563841856850E-01  3.7570912265487E-02
15  1.4000000000000E-01  1.0051055024380E+00  4.7210568589675E-02
16  1.5000000000000E-01  1.0618135409776E+00  5.8170560850871E-02
17  1.6000000000000E-01  1.1156297252626E+00  7.0485731968790E-02
18  1.7000000000000E-01  1.1664327634599E+00  8.4180756200654E-02
19  1.8000000000000E-01  1.2141131095615E+00  9.9270104806894E-02
20  1.9000000000000E-01  1.2585731107167E+00  1.1575810738466E-01
21  2.0000000000000E-01  1.2997270744560E+00  1.3363910680547E-01
22  2.1000000000000E-01  1.3375012579448E+00  1.5289770462262E-01
23  2.2000000000000E-01  1.3718337822237E+00  1.7350909278305E-01
24  2.3000000000000E-01  1.4026744751637E+00  1.9543946649781E-01
25  2.4000000000000E-01  1.4299846475920E+00  2.1864651220894E-01
26  2.5000000000000E-01  1.4537368077065E+00  2.4307996374762E-01
27  2.6000000000000E-01  1.4739143194961E+00  2.6868221902123E-01
28  2.7000000000000E-01  1.4905110114045E+00  2.9538900890316E-01
29  2.8000000000000E-01  1.5035307419190E+00  3.2313010943859E-01
30  2.9000000000000E-01  1.5129869291162E+00  3.5183008802837E-01
31  3.0000000000000E-01  1.5189020514619E+00  3.8140907391756E-01
32  3.1000000000000E-01  1.5213071273268E+00  4.1178354310067E-01
33  3.2000000000000E-01  1.5202411807522E+00  4.4286710766363E-01
34  3.3000000000000E-01  1.5157507009686E+00  4.7457129961698E-01
35  3.4000000000000E-01  1.5078891030434E+00  5.0680633943342E-01
36  3.5000000000000E-01  1.4967161968092E+00  5.3948187978714E-01
37  3.6000000000000E-01  1.4822976709041E+00  5.7250771539662E-01
38  3.7000000000000E-01  1.4647045983438E+00  6.0579445039557E-01
39  3.8000000000000E-01  1.4440129695490E+00  6.3925411528977E-01
40  3.9000000000000E-01  1.4203032581720E+00  6.7280072629554E-01
41  4.0000000000000E-01  1.3936600244158E+00  7.0635078068971E-01
42  4.1000000000000E-01  1.3641715598212E+00  7.3982368272000E-01
43  4.2000000000000E-01  1.3319295767259E+00  7.7314209562031E-01
44  4.3000000000000E-01  1.2970289447740E+00  8.0623221633273E-01
45  4.4000000000000E-01  1.2595674760045E+00  8.3902397064711E-01
46  4.5000000000000E-01  1.2196457591579E+00  8.7145112761352E-01
47  4.6000000000000E-01  1.1773670429497E+00  9.0345133325068E-01
48  4.7000000000000E-01  1.1328371671560E+00  9.3496606474874E-01
49  4.8000000000000E-01  1.0861645394722E+00  9.6594050753256E-01
50  4.9000000000000E-01  1.0374601552364E+00  9.9632335869765E-01
51  5.0000000000000E-01  9.8683765627789E-01  1.0260665614394E+00
52  5.1000000000000E-01  9.3441342436323E-01  1.0551249761524E+00
53  5.2000000000000E-01  8.8030670398263E-01  1.0834559948670E+00
54  5.3000000000000E-01  8.2463974855674E-01  1.1110191066012E+00
55  5.4000000000000E-01  7.6753798355902E-01  1.1377754220218E+00
56  5.5000000000000E-01  7.0913017955067E-01  1.1636871665234E+00
57  5.6000000000000E-01  6.4954862772293E-01  1.1887171514292E+00
58  5.7000000000000E-01  5.8892931024054E-01  1.2128282334926E+00
59  5.8000000000000E-01  5.2741205748863E-01  1.2359827732151E+00
60  5.9000000000000E-01  4.6514068424649E-01  1.2581421026979E+00
61  6.0000000000000E-01  4.0226309684939E-01  1.2792660138010E+00
62  6.1000000000000E-01  3.3893136355613E-01  1.2993122772900E+00
63  6.2000000000000E-01  2.7530174061446E-01  1.3182362034114E+00
64  6.3000000000000E-01  2.1153464691142E-01  1.3359902539501E+00
65  6.4000000000000E-01  1.4779458060173E-01  1.3525237152845E+00
66  6.5000000000000E-01  8.4249971728994E-02  1.3677824412854E+00
67  6.6000000000000E-01  2.1072965579973E-02  1.3817086740843E+00
68  6.7000000000000E-01 -4.1560867666290E-02  1.3942409498085E+00
69  6.8000000000000E-01 -1.0347290051621E-01  1.4053140953162E+00
70  6.9000000000000E-01 -1.6448189549502E-01  1.4148593208065E+00
71  7.0000000000000E-01 -2.2440453369956E-01  1.4228044119185E+00
72  7.1000000000000E-01 -2.8305602491901E-01  1.4290740236074E+00
73  7.2000000000000E-01 -3.4025079850063E-01  1.4335900766764E+00
74  7.3000000000000E-01 -3.9580327294898E-01  1.4362722564043E+00
75  7.4000000000000E-01 -4.4952870103652E-01  1.4370386112332E+00
76  7.5000000000000E-01 -5.0124408599236E-01  1.4358062479906E+00
77  7.6000000000000E-01 -5.5076916314780E-01  1.4324921186520E+00
78  7.7000000000000E-01 -5.9792744024939E-01  1.4270138921875E+00
79  7.8000000000000E-01 -6.4254728853892E-01  1.4192909036407E+00
80  7.9000000000000E-01 -6.8446307564645E-01  1.4092451712406E+00
81  8.0000000000000E-01 -7.2351633036782E-01  1.3968024710980E+00
82  8.1000000000000E-01 -7.5955692851487E-01  1.3818934578746E+00
83  8.2000000000000E-01 -7.9244428824926E-01  1.3644548187815E+00
84  8.3000000000000E-01 -8.2204856265151E-01  1.3444304473550E+00
85  8.4000000000000E-01 -8.4825181674659E-01  1.3217726227048E+00
86  8.5000000000000E-01 -8.7094917581722E-01  1.2964431793312E+00
87  8.6000000000000E-01 -8.9004993159324E-01  1.2684146521869E+00
88  8.7000000000000E-01 -9.0547859281803E-01  1.2376713814150E+00
89  8.8000000000000E-01 -9.1717586676523E-01  1.2042105611389E+00
90  8.9000000000000E-01 -9.2509955851514E-01  1.1680432168218E+00
91  9.0000000000000E-01 -9.2922537520053E-01  1.1291950960427E+00
92  9.1000000000000E-01 -9.2954762299628E-01  1.0877074580687E+00
93  9.2000000000000E-01 -9.2607978535365E-01  1.0436377483257E+00
94  9.3000000000000E-01 -9.1885497186294E-01  9.9706014478039E-01
95  9.4000000000000E-01 -9.0792622816129E-01  9.4806596434279E-01
96  9.5000000000000E-01 -8.9336669847710E-01  8.9676391866350E-01
97  9.6000000000000E-01 -8.7526963370597E-01  8.4328021012577E-01
98  9.7000000000000E-01 -8.5374823934891E-01  7.8775846042036E-01
99  9.8000000000000E-01 -8.2893535915234E-01  7.3035946577409E-01
100  9.9000000000000E-01 -8.0098299191671E-01  6.7126077473318E-01
101  1.0000000000000E+00 -7.7006164064210E-01  6.1065608632819E-01
102  1.0100000000000E+00 -7.3635949490446E-01  5.4875446841282E-01
103  1.0200000000000E+00 -7.0008144914382E-01  4.8577939801481E-01
104  1.0300000000000E+00 -6.6144796132675E-01  4.2196762758710E-01
105  1.0400000000000E+00 -6.2069375829294E-01  3.5756788318361E-01
106  1.0500000000000E+00 -5.7806639570483E-01  2.9283940245265E-01
107  1.0600000000000E+00 -5.3382468242146E-01  2.2805032256008E-01
108  1.0700000000000E+00 -4.8823698063241E-01  1.6347592993138E-01
109  1.0800000000000E+00 -4.4157939467443E-01  9.9396785571065E-02
110  1.0900000000000E+00 -3.9413386295875E-01  3.6096741502689E-02
111  1.1000000000000E+00 -3.4618616858319E-01 -2.6139134761823E-02
112  1.1100000000000E+00 -2.9802388560176E-01 -8.7026709135071E-02
113  1.1200000000000E+00 -2.4993427877984E-01 -1.4628498361969E-01
114  1.1300000000000E+00 -2.0220217556263E-01 -2.0363833198912E-01
115  1.1400000000000E+00 -1.5510782956269E-01 -2.5881874701997E-01
116  1.1500000000000E+00 -1.0892479541518E-01 -3.1156807711203E-01
117  1.1600000000000E+00 -6.3917835046403E-02 -3.6164022983375E-01
118  1.1700000000000E+00 -2.0340875349873E-02 -4.0880331991746E-01
119  1.1800000000000E+00  2.1564962803043E-02 -4.5284173925238E-01
120  1.1900000000000E+00  6.1573244746949E-02 -4.9355812686177E-01
121  1.2000000000000E+00  9.9473992624075E-02 -5.3077521759299E-01
122  1.2100000000000E+00  1.3507532856464E-01 -5.6433754926586E-01
123  1.2200000000000E+00  1.6820497317292E-01 -5.9411300863087E-01
124  1.2300000000000E+00  1.9871158391537E-01 -6.1999419856180E-01
125  1.2400000000000E+00  2.2646591952208E-01 -6.4189961061479E-01
126  1.2500000000000E+00  2.5136181698666E-01 -6.5977458760411E-01
127  1.2600000000000E+00  2.7331697093981E-01 -6.7359206444261E-01
128  1.2700000000000E+00  2.9227350688165E-01 -6.8335307744908E-01
129  1.2800000000000E+00  3.0819834036068E-01 -6.8908703299781E-01
130  1.2900000000000E+00  3.2108331806792E-01 -6.9085173080414E-01
131  1.3000000000000E+00  3.3094513906321E-01 -6.8873313972426E-01
132  1.3100000000000E+00  3.3782505424302E-01 -6.8284492381260E-01
133  1.3200000000000E+00  3.4178834739630E-01 -6.7332772238245E-01
134  1.3300000000000E+00  3.4292360292830E-01 -6.6034818982180E-01
135  1.3400000000000E+00  3.4134176454590E-01 -6.4409779999761E-01
136  1.3500000000000E+00  3.3717499648349E-01 -6.2479142847463E-01
137  1.3600000000000E+00  3.3057535736889E-01 -6.0266572407890E-01
138  1.3700000000000E+00  3.2171329889492E-01 -5.7797728370760E-01
139  1.3800000000000E+00  3.1077600684646E-01 -5.5100065051727E-01
140  1.3900000000000E+00  2.9796559905793E-01 -5.2202615218141E-01
141  1.4000000000000E+00  2.8349720021912E-01 -4.9135760208723E-01
142  1.4100000000000E+00  2.6759691399511E-01 -4.5930988698726E-01
143  1.4200000000000E+00  2.5049971204145E-01 -4.2620646358587E-01
144  1.4300000000000E+00  2.3244726455905E-01 -3.9237679242458E-01
145  1.4400000000000E+00  2.1368573366599E-01 -3.5815373351852E-01
146  1.4500000000000E+00  1.9446355470032E-01 -3.2387093265429E-01
147  1.4600000000000E+00  1.7502923066261E-01 -2.8986022764465E-01
148  1.4700000000000E+00  1.5562915916835E-01 -2.5644909604123E-01
149  1.4800000000000E+00  1.3650553402599E-01 -2.2395819506411E-01
150  1.4900000000000E+00  1.1789423634498E-01 -1.9269888302375E-01
151  1.5000000000000E+00  1.0002277045439E-01 -1.6297078569696E-01
152  1.5100000000000E+00  8.3109629591512E-02 -1.3506119035676E-01
153  1.5200000000000E+00  6.7360637033723E-02 -1.0924053667741E-01
154  1.5300000000000E+00  5.2963886974931E-02 -8.5756079178559E-02
155  1.5400000000000E+00  4.0085444947839E-02 -6.4826583529319E-02
156  1.5500000000000E+00  2.8866254785827E-02 -4.6639236362486E-02
157  1.5600000000000E+00  1.9419014775777E-02 -3.1344927353824E-02
158  1.5700000000000E+00  1.1788592299509E-02 -1.8995309200879E-02
159  1.5800000000000E+00  6.0700759230497E-03 -9.7320940713153E-03
160  1.5900000000000E+00  2.4464934890199E-03 -3.8436101184414E-03
161  1.6000000000000E+00  6.8197279314988E-04 -9.6963602347991E-04
162  1.6100000000000E+00  6.7726896577245E-05 -1.1188797254377E-05
163  1.6200000000000E+00 -1.8684142582047E-05  5.5087511664689E-05
164  1.6300000000000E+00  1.8105999241687E-05 -4.2585461511551E-05
165  1.6400000000000E+00  1.1037043984416E-05 -2.3993658035837E-05
166  1.6500000000000E+00 -2.1790648941503E-06  6.4256900011587E-06
167  1.6600000000000E+00 -1.2941807963746E-06  3.4653866844208E-06
168  1.6700000000000E+00 -7.8705354923787E-07  9.3950196625108E-07
169  1.6800000000000E+00 -3.8067240039549E-07  4.5440677958367E-07
170  1.6900000000000E+00  0.0000000000000E+00  0.0000000000000E+00
171  1.7000000000000E+00  0.0000000000000E+00  0.0000000000000E+00
172  1.7100000000000E+00  0.0000000000000E+00  0.0000000000000E+00
173  1.7200000000000E+00  0.0000000000000E+00  0.0000000000000E+00
174  1.7300000000000E+00  0.0000000000000E+00  0.0000000000000E+00
175  1.7400000000000E+00  0.0000000000000E+00  0.0000000000000E+00
176  1.7500000000000E+00  0.0000000000000E+00  0.0000000000000E+00
177  1.7600000000000E+00  0.0000000000000E+00  0.0000000000000E+00
178  1.7700000000000E+00  0.0000000000000E+00  0.0000000000000E+00
179  1.7800000000000E+00  0.0000000000000E+00  0.0000000000000E+00
180  1.7900000000000E+00  0.0000000000000E+00  0.0000000000000E+00
181  1.8000000000000E+00  0.0000000000000E+00  0.0000000000000E+00
182  1.8100000000000E+00  0.0000000000000E+00  0.0000000000000E+00
183  1.8200000000000E+00  0.0000000000000E+00  0.0000000000000E+00
184  1.8300000000000E+00  0.0000000000000E+00  0.0000000000000E+00
185  1.8400000000000E+00  0.0000000000000E+00  0.0000000000000E+00
186  1.8500000000000E+00  0.0000000000000E+00  0.0000000000000E+00
187  1.8600000000000E+00  0.0000000000000E+00  0.0000000000000E+00
188  1.8700000000000E+00  0.0000000000000E+00  0.0000000000000E+00
189  1.8800000000000E+00  0.0000000000000E+00  0.0000000000000E+00
190  1.8900000000000E+00  0.0000000000000E+00  0.0000000000000E+00
191  1.9000000000000E+00  0.0000000000000E+00  0.0000000000000E+00
192  1.9100000000000E+00  0.0000000000000E+00  0.0000000000000E+00
193  1.9200000000000E+00  0.0000000000000E+00  0.0000000000000E+00
194  1.9300000000000E+00  0.0000000000000E+00  0.0000000000000E+00
195  1.9400000000000E+00  0.0000000000000E+00  0.0000000000000E+00
196  1.9500000000000E+00  0.0000000000000E+00  0.0000000000000E+00
197  1.9600000000000E+00  0.0000000000000E+00  0.0000000000000E+00
198  1.9700000000000E+00  0.0000000000000E+00  0.0000000000000E+00
199  1.9800000000000E+00  0.0000000000000E+00  0.0000000000000E+00
200  1.9900000000000E+00  0.0000000000000E+00  0.0000000000000E+00
201  2.0000000000000E+00  0.0000000000000E+00  0.0000000000000E+00
202  2.0100000000000E+00  0.0000000000000E+00  0.0000000000000E+00
203  2.0200000000000E+00  0.0000000000000E+00  0.0000000000000E+00
204  2.0300000000000E+00  0.0000000000000E+00  0.0000000000000E+00
205  2.0400000000000E+00  0.0000000000000E+00  0.0000000000000E+00
206  2.0500000000000E+00  0.0000000000000E+00  0.0000000000000E+00
207  2.0600000000000E+00  0.0000000000000E+00  0.0000000000000E+00
208  2.0700000000000E+00  0.0000000000000E+00  0.0000000000000E+00
209  2.0800000000000E+00  0.0000000000000E+00  0.0000000000000E+00
210  2.0900000000000E+00  0.0000000000000E+00  0.0000000000000E+00
211  2.1000000000000E+00  0.0000000000000E+00  0.0000000000000E+00
212  2.1100000000000E+00  0.0000000000000E+00  0.0000000000000E+00
213  2.1200000000000E+00  0.0000000000000E+00  0.0000000000000E+00
214  2.1300000000000E+00  0.0000000000000E+00  0.0000000000000E+00
215  2.1400000000000E+00  0.0000000000000E+00  0.0000000000000E+00
216  2.1500000000000E+00  0.0000000000000E+00  0.0000000000000E+00
217  2.1600000000000E+00  0.0000000000000E+00  0.0000000000000E+00
218  2.1700000000000E+00  0.0000000000000E+00  0.0000000000000E+00
219  2.1800000000000E+00  0.0000000000000E+00  0.0000000000000E+00
220  2.1900000000000E+00  0.0000000000000E+00  0.0000000000000E+00
221  2.2000000000000E+00  0.0000000000000E+00  0.0000000000000E+00
222  2.2100000000000E+00  0.0000000000000E+00  0.0000000000000E+00
223  2.2200000000000E+00  0.0000000000000E+00  0.0000000000000E+00
224  2.2300000000000E+00  0.0000000000000E+00  0.0000000000000E+00
225  2.2400000000000E+00  0.0000000000000E+00  0.0000000000000E+00
226  2.2500000000000E+00  0.0000000000000E+00  0.0000000000000E+00
227  2.2600000000000E+00  0.0000000000000E+00  0.0000000000000E+00
228  2.2700000000000E+00  0.0000000000000E+00  0.0000000000000E+00
229  2.2800000000000E+00  0.0000000000000E+00  0.0000000000000E+00
230  2.2900000000000E+00  0.0000000000000E+00  0.0000000000000E+00
231  2.3000000000000E+00  0.0000000000000E+00  0.0000000000000E+00
232  2.3100000000000E+00  0.0000000000000E+00  0.0000000000000E+00
233  2.3200000000000E+00  0.0000000000000E+00  0.0000000000000E+00
234  2.3300000000000E+00  0.0000000000000E+00  0.0000000000000E+00
235  2.3400000000000E+00  0.0000000000000E+00  0.0000000000000E+00
236  2.3500000000000E+00  0.0000000000000E+00  0.0000000000000E+00
237  2.3600000000000E+00  0.0000000000000E+00  0.0000000000000E+00
238  2.3700000000000E+00  0.0000000000000E+00  0.0000000000000E+00
239  2.3800000000000E+00  0.0000000000000E+00  0.0000000000000E+00
240  2.3900000000000E+00  0.0000000000000E+00  0.0000000000000E+00
241  2.4000000000000E+00  0.0000000000000E+00  0.0000000000000E+00
242  2.4100000000000E+00  0.0000000000000E+00  0.0000000000000E+00
243  2.4200000000000E+00  0.0000000000000E+00  0.0000000000000E+00
244  2.4300000000000E+00  0.0000000000000E+00  0.0000000000000E+00
245  2.4400000000000E+00  0.0000000000000E+00  0.0000000000000E+00
246  2.4500000000000E+00  0.0000000000000E+00  0.0000000000000E+00
247  2.4600000000000E+00  0.0000000000000E+00  0.0000000000000E+00
248  2.4700000000000E+00  0.0000000000000E+00  0.0000000000000E+00
249  2.4800000000000E+00  0.0000000000000E+00  0.0000000000000E+00
250  2.4900000000000E+00  0.0000000000000E+00  0.0000000000000E+00
251  2.5000000000000E+00  0.0000000000000E+00  0.0000000000000E+00
252  2.5100000000000E+00  0.0000000000000E+00  0.0000000000000E+00
253  2.5200000000000E+00  0.0000000000000E+00  0.0000000000000E+00
254  2.5300000000000E+00  0.0000000000000E+00  0.0000000000000E+00
255  2.5400000000000E+00  0.0000000000000E+00  0.0000000000000E+00
256  2.5500000000000E+00  0.0000000000000E+00  0.0000000000000E+00
257  2.5600000000000E+00  0.0000000000000E+00  0.0000000000000E+00
258  2.5700000000000E+00  0.0000000000000E+00  0.0000000000000E+00
259  2.5800000000000E+00  0.0000000000000E+00  0.0000000000000E+00
260  2.5900000000000E+00  0.0000000000000E+00  0.0000000000000E+00
261  2.6000000000000E+00  0.0000000000000E+00  0.0000000000000E+00
262  2.6100000000000E+00  0.0000000000000E+00  0.0000000000000E+00
263  2.6200000000000E+00  0.0000000000000E+00  0.0000000000000E+00
264  2.6300000000000E+00  0.0000000000000E+00  0.0000000000000E+00
265  2.6400000000000E+00  0.0000000000000E+00  0.0000000000000E+00
266  2.6500000000000E+00  0.0000000000000E+00  0.0000000000000E+00
267  2.6600000000000E+00  0.0000000000000E+00  0.0000000000000E+00
268  2.6700000000000E+00  0.0000000000000E+00  0.0000000000000E+00
269  2.6800000000000E+00  0.0000000000000E+00  0.0000000000000E+00
270  2.6900000000000E+00  0.0000000000000E+00  0.0000000000000E+00
271  2.7000000000000E+00  0.0000000000000E+00  0.0000000000000E+00
272  2.7100000000000E+00  0.0000000000000E+00  0.0000000000000E+00
273  2.7200000000000E+00  0.0000000000000E+00  0.0000000000000E+00
274  2.7300000000000E+00  0.0000000000000E+00  0.0000000000000E+00
275  2.7400000000000E+00  0.0000000000000E+00  0.0000000000000E+00
276  2.7500000000000E+00  0.0000000000000E+00  0.0000000000000E+00
277  2.7600000000000E+00  0.0000000000000E+00  0.0000000000000E+00
278  2.7700000000000E+00  0.0000000000000E+00  0.0000000000000E+00
279  2.7800000000000E+00  0.0000000000000E+00  0.0000000000000E+00
280  2.7900000000000E+00  0.0000000000000E+00  0.0000000000000E+00
281  2.8000000000000E+00  0.0000000000000E+00  0.0000000000000E+00
282  2.8100000000000E+00  0.0000000000000E+00  0.0000000000000E+00
283  2.8200000000000E+00  0.0000000000000E+00  0.0000000000000E+00
284  2.8300000000000E+00  0.0000000000000E+00  0.0000000000000E+00
285  2.8400000000000E+00  0.0000000000000E+00  0.0000000000000E+00
286  2.8500000000000E+00  0.0000000000000E+00  0.0000000000000E+00
287  2.8600000000000E+00  0.0000000000000E+00  0.0000000000000E+00
288  2.8700000000000E+00  0.0000000000000E+00  0.0000000000000E+00
289  2.8800000000000E+00  0.0000000000000E+00  0.0000000000000E+00
290  2.8900000000000E+00  0.0000000000000E+00  0.0000000000000E+00
291  2.9000000000000E+00  0.0000000000000E+00  0.0000000000000E+00
292  2.9100000000000E+00  0.0000000000000E+00  0.0000000000000E+00
293  2.9200000000000E+00  0.0000000000000E+00  0.0000000000000E+00
294  2.9300000000000E+00  0.0000000000000E+00  0.0000000000000E+00
295  2.9400000000000E+00  0.0000000000000E+00  0.0000000000000E+00
296  2.9500000000000E+00  0.0000000000000E+00  0.0000000000000E+00
297  2.9600000000000E+00  0.0000000000000E+00  0.0000000000000E+00
298  2.9700000000000E+00  0.0000000000000E+00  0.0000000000000E+00
299  2.9800000000000E+00  0.0000000000000E+00  0.0000000000000E+00
300  2.9900000000000E+00  0.0000000000000E+00  0.0000000000000E+00
301  3.0000000000000E+00  0.0000000000000E+00  0.0000000000000E+00
302  3.0100000000000E+00  0.0000000000000E+00  0.0000000000000E+00
303  3.0200000000000E+00  0.0000000000000E+00  0.0000000000000E+00
304  3.0300000000000E+00  0.0000000000000E+00  0.0000000000000E+00
305  3.0400000000000E+00  0.0000000000000E+00  0.0000000000000E+00
306  3.0500000000000E+00  0.0000000000000E+00  0.0000000000000E+00
307  3.0600000000000E+00  0.0000000000000E+00  0.0000000000000E+00
308  3.0700000000000E+00  0.0000000000000E+00  0.0000000000000E+00
309  3.0800000000000E+00  0.0000000000000E+00  0.0000000000000E+00
310  3.0900000000000E+00  0.0000000000000E+00  0.0000000000000E+00
311  3.1000000000000E+00  0.0000000000000E+00  0.0000000000000E+00
312  3.1100000000000E+00  0.0000000000000E+00  0.0000000000000E+00
313  3.1200000000000E+00  0.0000000000000E+00  0.0000000000000E+00
314  3.1300000000000E+00  0.0000000000000E+00  0.0000000000000E+00
315  3.1400000000000E+00  0.0000000000000E+00  0.0000000000000E+00
316  3.1500000000000E+00  0.0000000000000E+00  0.0000000000000E+00
317  3.1600000000000E+00  0.0000000000000E+00  0.0000000000000E+00
318  3.1700000000000E+00  0.0000000000000E+00  0.0000000000000E+00
319  3.1800000000000E+00  0.0000000000000E+00  0.0000000000000E+00
320  3.1900000000000E+00  0.0000000000000E+00  0.0000000000000E+00
321  3.2000000000000E+00  0.0000000000000E+00  0.0000000000000E+00
322  3.2100000000000E+00  0.0000000000000E+00  0.0000000000000E+00
323  3.2200000000000E+00  0.0000000000000E+00  0.0000000000000E+00
324  3.2300000000000E+00  0.0000000000000E+00  0.0000000000000E+00
325  3.2400000000000E+00  0.0000000000000E+00  0.0000000000000E+00
326  3.2500000000000E+00  0.0000000000000E+00  0.0000000000000E+00
327  3.2600000000000E+00  0.0000000000000E+00  0.0000000000000E+00
328  3.2700000000000E+00  0.0000000000000E+00  0.0000000000000E+00
329  3.2800000000000E+00  0.0000000000000E+00  0.0000000000000E+00
330  3.2900000000000E+00  0.0000000000000E+00  0.0000000000000E+00
331  3.3000000000000E+00  0.0000000000000E+00  0.0000000000000E+00
332  3.3100000000000E+00  0.0000000000000E+00  0.0000000000000E+00
333  3.3200000000000E+00  0.0000000000000E+00  0.0000000000000E+00
334  3.3300000000000E+00  0.0000000000000E+00  0.0000000000000E+00
335  3.3400000000000E+00  0.0000000000000E+00  0.0000000000000E+00
336  3.3500000000000E+00  0.0000000000000E+00  0.0000000000000E+00
337  3.3600000000000E+00  0.0000000000000E+00  0.0000000000000E+00
338  3.3700000000000E+00  0.0000000000000E+00  0.0000000000000E+00
339  3.3800000000000E+00  0.0000000000000E+00  0.0000000000000E+00
340  3.3900000000000E+00  0.0000000000000E+00  0.0000000000000E+00
341  3.4000000000000E+00  0.0000000000000E+00  0.0000000000000E+00
342  3.4100000000000E+00  0.0000000000000E+00  0.0000000000000E+00
343  3.4200000000000E+00  0.0000000000000E+00  0.0000000000000E+00
344  3.4300000000000E+00  0.0000000000000E+00  0.0000000000000E+00
345  3.4400000000000E+00  0.0000000000000E+00  0.0000000000000E+00
346  3.4500000000000E+00  0.0000000000000E+00  0.0000000000000E+00
347  3.4600000000000E+00  0.0000000000000E+00  0.0000000000000E+00
348  3.4700000000000E+00  0.0000000000000E+00  0.0000000000000E+00
349  3.4800000000000E+00  0.0000000000000E+00  0.0000000000000E+00
350  3.4900000000000E+00  0.0000000000000E+00  0.0000000000000E+00
351  3.5000000000000E+00  0.0000000000000E+00  0.0000000000000E+00
352  3.5100000000000E+00  0.0000000000000E+00  0.0000000000000E+00
353  3.5200000000000E+00  0.0000000000000E+00  0.0000000000000E+00
354  3.5300000000000E+00  0.0000000000000E+00  0.0000000000000E+00
355  3.5400000000000E+00  0.0000000000000E+00  0.0000000000000E+00
356  3.5500000000000E+00  0.0000000000000E+00  0.0000000000000E+00
357  3.5600000000000E+00  0.0000000000000E+00  0.0000000000000E+00
358  3.5700000000000E+00  0.0000000000000E+00  0.0000000000000E+00
359  3.5800000000000E+00  0.0000000000000E+00  0.0000000000000E+00
360  3.5900000000000E+00  0.0000000000000E+00  0.0000000000000E+00
361  3.6000000000000E+00  0.0000000000000E+00  0.0000000000000E+00
362  3.6100000000000E+00  0.0000000000000E+00  0.0000000000000E+00
363  3.6200000000000E+00  0.0000000000000E+00  0.0000000000000E+00
364  3.6300000000000E+00  0.0000000000000E+00  0.0000000000000E+00
365  3.6400000000000E+00  0.0000000000000E+00  0.0000000000000E+00
366  3.6500000000000E+00  0.0000000000000E+00  0.0000000000000E+00
367  3.6600000000000E+00  0.0000000000000E+00  0.0000000000000E+00
368  3.6700000000000E+00  0.0000000000000E+00  0.0000000000000E+00
369  3.6800000000000E+00  0.0000000000000E+00  0.0000000000000E+00
370  3.6900000000000E+00  0.0000000000000E+00  0.0000000000000E+00
371  3.7000000000000E+00  0.0000000000000E+00  0.0000000000000E+00
372  3.7100000000000E+00  0.0000000000000E+00  0.0000000000000E+00
373  3.7200000000000E+00  0.0000000000000E+00  0.0000000000000E+00
374  3.7300000000000E+00  0.0000000000000E+00  0.0000000000000E+00
375  3.7400000000000E+00  0.0000000000000E+00  0.0000000000000E+00
376  3.7500000000000E+00  0.0000000000000E+00  0.0000000000000E+00
377  3.7600000000000E+00  0.0000000000000E+00  0.0000000000000E+00
378  3.7700000000000E+00  0.0000000000000E+00  0.0000000000000E+00
379  3.7800000000000E+00  0.0000000000000E+00  0.0000000000000E+00
380  3.7900000000000E+00  0.0000000000000E+00  0.0000000000000E+00
381  3.8000000000000E+00  0.0000000000000E+00  0.0000000000000E+00
382  3.8100000000000E+00  0.0000000000000E+00  0.0000000000000E+00
383  3.8200000000000E+00  0.0000000000000E+00  0.0000000000000E+00
384  3.8300000000000E+00  0.0000000000000E+00  0.0000000000000E+00
385  3.8400000000000E+00  0.0000000000000E+00  0.0000000000000E+00
386  3.8500000000000E+00  0.0000000000000E+00  0.0000000000000E+00
387  3.8600000000000E+00  0.0000000000000E+00  0.0000000000000E+00
388  3.8700000000000E+00  0.0000000000000E+00  0.0000000000000E+00
389  3.8800000000000E+00  0.0000000000000E+00  0.0000000000000E+00
390  3.8900000000000E+00  0.0000000000000E+00  0.0000000000000E+00
391  3.9000000000000E+00  0.0000000000000E+00  0.0000000000000E+00
392  3.9100000000000E+00  0.0000000000000E+00  0.0000000000000E+00
393  3.9200000000000E+00  0.0000000000000E+00  0.0000000000000E+00
394  3.9300000000000E+00  0.0000000000000E+00  0.0000000000000E+00
395  3.9400000000000E+00  0.0000000000000E+00  0.0000000000000E+00
396  3.9500000000000E+00  0.0000000000000E+00  0.0000000000000E+00
397  3.9600000000000E+00  0.0000000000000E+00  0.0000000000000E+00
398  3.9700000000000E+00  0.0000000000000E+00  0.0000000000000E+00
399  3.9800000000000E+00  0.0000000000000E+00  0.0000000000000E+00
400  3.9900000000000E+00  0.0000000000000E+00  0.0000000000000E+00
401  4.0000000000000E+00  0.0000000000000E+00  0.0000000000000E+00
402  4.0100000000000E+00  0.0000000000000E+00  0.0000000000000E+00
403  4.0200000000000E+00  0.0000000000000E+00  0.0000000000000E+00
404  4.0300000000000E+00  0.0000000000000E+00  0.0000000000000E+00
405  4.0400000000000E+00  0.0000000000000E+00  0.0000000000000E+00
406  4.0500000000000E+00  0.0000000000000E+00  0.0000000000000E+00
407  4.0600000000000E+00  0.0000000000000E+00  0.0000000000000E+00
408  4.0700000000000E+00  0.0000000000000E+00  0.0000000000000E+00
409  4.0800000000000E+00  0.0000000000000E+00  0.0000000000000E+00
410  4.0900000000000E+00  0.0000000000000E+00  0.0000000000000E+00
411  4.1000000000000E+00  0.0000000000000E+00  0.0000000000000E+00
412  4.1100000000000E+00  0.0000000000000E+00  0.0000000000000E+00
413  4.1200000000000E+00  0.0000000000000E+00  0.0000000000000E+00
414  4.1300000000000E+00  0.0000000000000E+00  0.0000000000000E+00
415  4.1400000000000E+00  0.0000000000000E+00  0.0000000000000E+00
416  4.1500000000000E+00  0.0000000000000E+00  0.0000000000000E+00
417  4.1600000000000E+00  0.0000000000000E+00  0.0000000000000E+00
418  4.1700000000000E+00  0.0000000000000E+00  0.0000000000000E+00
419  4.1800000000000E+00  0.0000000000000E+00  0.0000000000000E+00
420  4.1900000000000E+00  0.0000000000000E+00  0.0000000000000E+00
421  4.2000000000000E+00  0.0000000000000E+00  0.0000000000000E+00
422  4.2100000000000E+00  0.0000000000000E+00  0.0000000000000E+00
423  4.2200000000000E+00  0.0000000000000E+00  0.0000000000000E+00
424  4.2300000000000E+00  0.0000000000000E+00  0.0000000000000E+00
425  4.2400000000000E+00  0.0000000000000E+00  0.0000000000000E+00
426  4.2500000000000E+00  0.0000000000000E+00  0.0000000000000E+00
427  4.2600000000000E+00  0.0000000000000E+00  0.0000000000000E+00
428  4.2700000000000E+00  0.0000000000000E+00  0.0000000000000E+00
429  4.2800000000000E+00  0.0000000000000E+00  0.0000000000000E+00
430  4.2900000000000E+00  0.0000000000000E+00  0.0000000000000E+00
431  4.3000000000000E+00  0.0000000000000E+00  0.0000000000000E+00
432  4.3100000000000E+00  0.0000000000000E+00  0.0000000000000E+00
433  4.3200000000000E+00  0.0000000000000E+00  0.0000000000000E+00
434  4.3300000000000E+00  0.0000000000000E+00  0.0000000000000E+00
435  4.3400000000000E+00  0.0000000000000E+00  0.0000000000000E+00
436  4.3500000000000E+00  0.0000000000000E+00  0.0000000000000E+00
437  4.3600000000000E+00  0.0000000000000E+00  0.0000000000000E+00
438  4.3700000000000E+00  0.0000000000000E+00  0.0000000000000E+00
439  4.3800000000000E+00  0.0000000000000E+00  0.0000000000000E+00
440  4.3900000000000E+00  0.0000000000000E+00  0.0000000000000E+00
441  4.4000000000000E+00  0.0000000000000E+00  0.0000000000000E+00
442  4.4100000000000E+00  0.0000000000000E+00  0.0000000000000E+00
443  4.4200000000000E+00  0.0000000000000E+00  0.0000000000000E+00