Hg    ONCVPSP-3.2.3.1  r_core=   1.60079   1.60079   1.45509   1.60079
80.0000     20.0000      170503    zatom,zion,pspd
8      11   3     4   600     0    pspcod,pspxc,lmax,lloc,mmax,r2well
5.99000000  5.00000000  0.00000000    rchrg fchrg qchrg
2     2     2     1     0    nproj
1     1           extension_switch
0                         1.4521177559359E+01  2.0111089192426E+00
1  0.0000000000000E+00 -2.7314239758880E-10  5.0360415143613E-10
2  1.0000000000000E-02  7.6706705859232E-02 -8.9447757995871E-03
3  2.0000000000000E-02  1.5321169208168E-01 -1.7745021666792E-02
4  3.0000000000000E-02  2.2931407485225E-01 -2.6257311462539E-02
5  4.0000000000000E-02  3.0481463557599E-01 -3.4340415434162E-02
6  5.0000000000000E-02  3.7951663750023E-01 -4.1856370537656E-02
7  6.0000000000000E-02  4.5322662334733E-01 -4.8671517676105E-02
8  7.0000000000000E-02  5.2575518795222E-01 -5.4657495424057E-02
9  8.0000000000000E-02  5.9691772017246E-01 -5.9692180311249E-02
10  9.0000000000000E-02  6.6653510867356E-01 -6.3660564357566E-02
11  1.0000000000000E-01  7.3443440658650E-01 -6.6455561277638E-02
12  1.1000000000000E-01  8.0044945048227E-01 -6.7978733599547E-02
13  1.2000000000000E-01  8.6442142960463E-01 -6.8140933858165E-02
14  1.3000000000000E-01  9.2619940184214E-01 -6.6862854019322E-02
15  1.4000000000000E-01  9.8564075349690E-01 -6.4075478354617E-02
16  1.5000000000000E-01  1.0426116005136E+00 -5.9720436105892E-02
17  1.6000000000000E-01  1.0969871294623E+00 -5.3750251440407E-02
18  1.7000000000000E-01  1.1486518772123E+00 -4.6128489388497E-02
19  1.8000000000000E-01  1.1974999488891E+00 -3.6829797661739E-02
20  1.9000000000000E-01  1.2434351743578E+00 -2.5839845456227E-02
21  2.0000000000000E-01  1.2863712041228E+00 -1.3155161539136E-02
22  2.1000000000000E-01  1.3262315461641E+00  1.2171249177654E-03
23  2.2000000000000E-01  1.3629495458386E+00  1.7259636170109E-02
24  2.3000000000000E-01  1.3964683115511E+00  3.4945184742269E-02
25  2.4000000000000E-01  1.4267405894412E+00  5.4237292621914E-02
26  2.5000000000000E-01  1.4537285908284E+00  7.5090783232291E-02
27  2.6000000000000E-01  1.4774037766045E+00  9.7452437779786E-02
28  2.7000000000000E-01  1.4977466031527E+00  1.2126170685003E-01
29  2.8000000000000E-01  1.5147462347038E+00  1.4645146751404E-01
30  2.9000000000000E-01  1.5284002273056E+00  1.7294881571384E-01
31  3.0000000000000E-01  1.5387141897775E+00  2.0067588333299E-01
32  3.1000000000000E-01  1.5457014271490E+00  2.2955066912477E-01
33  3.2000000000000E-01  1.5493825721336E+00  2.5948787257524E-01
34  3.3000000000000E-01  1.5497852101684E+00  2.9039971982097E-01
35  3.4000000000000E-01  1.5469435034524E+00  3.2219677092261E-01
36  3.5000000000000E-01  1.5408978192498E+00  3.5478869811506E-01
37  3.6000000000000E-01  1.5316943674827E+00  3.8808502510955E-01
38  3.7000000000000E-01  1.5193848523273E+00  4.2199581810816E-01
39  3.8000000000000E-01  1.5040261421522E+00  4.5643231990084E-01
40  3.9000000000000E-01  1.4856799617025E+00  4.9130751924198E-01
41  4.0000000000000E-01  1.4644126099377E+00  5.2653664863698E-01
42  4.1000000000000E-01  1.4402947063915E+00  5.6203760470108E-01
43  4.2000000000000E-01  1.4134009683333E+00  5.9773128636800E-01
44  4.3000000000000E-01  1.3838100203920E+00  6.3354184741375E-01
45  4.4000000000000E-01  1.3516042376496E+00  6.6939686100591E-01
46  4.5000000000000E-01  1.3168696225459E+00  7.0522739527542E-01
47  4.6000000000000E-01  1.2796957152531E+00  7.4096800022144E-01
48  4.7000000000000E-01  1.2401755364988E+00  7.7655660758203E-01
49  4.8000000000000E-01  1.1984055611405E+00  8.1193434661916E-01
50  4.9000000000000E-01  1.1544857201384E+00  8.4704528005708E-01
51  5.0000000000000E-01  1.1085194279425E+00  8.8183606566266E-01
52  5.1000000000000E-01  1.0606136317126E+00  9.1625555014648E-01
53  5.2000000000000E-01  1.0108788782409E+00  9.5025430318033E-01
54  5.3000000000000E-01  9.5942939394636E-01  9.8378410035143E-01
55  5.4000000000000E-01  9.0638317287174E-01  1.0167973647937E+00
56  5.5000000000000E-01  8.5186206724587E-01  1.0492465780373E+00
57  5.6000000000000E-01  7.9599187487520E-01  1.0810836712861E+00
58  5.7000000000000E-01  7.3890241741532E-01  1.1122594088583E+00
59  5.8000000000000E-01  6.8072760344116E-01  1.1427227758993E+00
60  5.9000000000000E-01  6.2160547019375E-01  1.1724203826875E+00
61  6.0000000000000E-01  5.6167819793087E-01  1.2012958979026E+00
62  6.1000000000000E-01  5.0109209095230E-01  1.2292895230994E+00
63  6.2000000000000E-01  4.3999751960746E-01  1.2563375203385E+00
64  6.3000000000000E-01  3.7854881792316E-01  1.2823718044559E+00
65  6.4000000000000E-01  3.1690413190922E-01  1.3073196108184E+00
66  6.5000000000000E-01  2.5522521411022E-01  1.3311032486131E+00
67  6.6000000000000E-01  1.9367716056185E-01  1.3536399487589E+00
68  6.7000000000000E-01  1.3242808698057E-01  1.3748418144273E+00
69  6.8000000000000E-01  7.1648741756691E-02  1.3946158809117E+00
70  6.9000000000000E-01  1.1512054125594E-02  1.4128642902202E+00
71  7.0000000000000E-01 -4.7807383253884E-02  1.4294845842946E+00
72  7.1000000000000E-01 -1.0613389717688E-01  1.4443701191846E+00
73  7.2000000000000E-01 -1.6329138115569E-01  1.4574106008677E+00
74  7.3000000000000E-01 -2.1910400503830E-01  1.4684927417098E+00
75  7.4000000000000E-01 -2.7339698398066E-01  1.4775010348262E+00
76  7.5000000000000E-01 -3.2599740280672E-01  1.4843186418699E+00
77  7.6000000000000E-01 -3.7673509083016E-01  1.4888283880295E+00
78  7.7000000000000E-01 -4.2544354128854E-01  1.4909138563268E+00
79  7.8000000000000E-01 -4.7196086865160E-01  1.4904605716559E+00
80  7.9000000000000E-01 -5.1613079622949E-01  1.4873572634375E+00
81  8.0000000000000E-01 -5.5780366573591E-01  1.4814971942935E+00
82  8.1000000000000E-01 -5.9683745976567E-01  1.4727795407971E+00
83  8.2000000000000E-01 -6.3309882753825E-01  1.4611108111457E+00
84  8.3000000000000E-01 -6.6646410374763E-01  1.4464062835540E+00
85  8.4000000000000E-01 -6.9682030995492E-01  1.4285914482915E+00
86  8.5000000000000E-01 -7.2406612766988E-01  1.4076034356038E+00
87  8.6000000000000E-01 -7.4811283209949E-01  1.3833924112816E+00
88  8.7000000000000E-01 -7.6888517550051E-01  1.3559229213762E+00
89  8.8000000000000E-01 -7.8632220916247E-01  1.3251751675218E+00
90  8.9000000000000E-01 -8.0037803327150E-01  1.2911461945119E+00
91  9.0000000000000E-01 -8.1102246426294E-01  1.2538509722037E+00
92  9.1000000000000E-01 -8.1824160976331E-01  1.2133233544722E+00
93  9.2000000000000E-01 -8.2203834184493E-01  1.1696168988248E+00
94  9.3000000000000E-01 -8.2243266006825E-01  1.1228055313901E+00
95  9.4000000000000E-01 -8.1946193665888E-01  1.0729840433204E+00
96  9.5000000000000E-01 -8.1318103715383E-01  1.0202684061717E+00
97  9.6000000000000E-01 -8.0366231094376E-01  9.6479589554074E-01
98  9.7000000000000E-01 -7.9099544732551E-01  9.0672501412827E-01
99  9.8000000000000E-01 -7.7528719394518E-01  8.4623520742899E-01
100  9.9000000000000E-01 -7.5666093588150E-01  7.8352636747168E-01
101  1.0000000000000E+00 -7.3525613494691E-01  7.1881812219791E-01
102  1.0100000000000E+00 -7.1122763030764E-01  6.5234891057457E-01
103  1.0200000000000E+00 -6.8474480292626E-01  5.8437484585588E-01
104  1.0300000000000E+00 -6.5599060782211E-01  5.1516837189179E-01
105  1.0400000000000E+00 -6.2516047959529E-01  4.4501671980695E-01
106  1.0500000000000E+00 -5.9246111814013E-01  3.7422017486454E-01
107  1.0600000000000E+00 -5.5810916275520E-01  3.0309016549550E-01
108  1.0700000000000E+00 -5.2232976431743E-01  2.3194718895591E-01
109  1.0800000000000E+00 -4.8535506636427E-01  1.6111859009043E-01
110  1.0900000000000E+00 -4.4742260709484E-01  9.0936211687317E-02
111  1.1000000000000E+00 -4.0877365540348E-01  2.1733936827533E-02
112  1.1100000000000E+00 -3.6965149484575E-01 -4.6154854995586E-02
113  1.1200000000000E+00 -3.3029967042366E-01 -1.1239989446061E-01
114  1.1300000000000E+00 -2.9096021357513E-01 -1.7667666727503E-01
115  1.1400000000000E+00 -2.5187186128938E-01 -2.3866907187414E-01
116  1.1500000000000E+00 -2.1326828555444E-01 -2.9807206398208E-01
117  1.1600000000000E+00 -1.7537634956051E-01 -3.5459426157553E-01
118  1.1700000000000E+00 -1.3841440700544E-01 -4.0796048383542E-01
119  1.1800000000000E+00 -1.0259066052904E-01 -4.5791419809630E-01
120  1.1900000000000E+00 -6.8101595207294E-02 -5.0421984890605E-01
121  1.2000000000000E+00 -3.5130502175191E-02 -5.4666504460650E-01
122  1.2100000000000E+00 -3.8461067494325E-03 -5.8506257795035E-01
123  1.2200000000000E+00  2.5598685341423E-02 -6.1925225846514E-01
124  1.2300000000000E+00  5.3067911058248E-02 -6.4910253593282E-01
125  1.2400000000000E+00  7.8443531489800E-02 -6.7451189688434E-01
126  1.2500000000000E+00  1.0162626179339E-01 -6.9541001789280E-01
127  1.2600000000000E+00  1.2253624073742E-01 -7.1175866095182E-01
128  1.2700000000000E+00  1.4111353365584E-01 -7.2355230066009E-01
129  1.2800000000000E+00  1.5731846373253E-01 -7.3081847476203E-01
130  1.2900000000000E+00  1.7113176738488E-01 -7.3361785097494E-01
131  1.3000000000000E+00  1.8255457329300E-01 -7.3204400926459E-01
132  1.3100000000000E+00  1.9160820509704E-01 -7.2622293952930E-01
133  1.3200000000000E+00  1.9833380904307E-01 -7.1631225671541E-01
134  1.3300000000000E+00  2.0279181208998E-01 -7.0250014241280E-01
135  1.3400000000000E+00  2.0506121532016E-01 -6.8500402087029E-01
136  1.3500000000000E+00  2.0523873006335E-01 -6.6406898162565E-01
137  1.3600000000000E+00  2.0343776751686E-01 -6.3996596656971E-01
138  1.3700000000000E+00  1.9978729089747E-01 -6.1298973634957E-01
139  1.3800000000000E+00  1.9443054388384E-01 -5.8345663888605E-01
140  1.3900000000000E+00  1.8752366930368E-01 -5.5170220311542E-01
141  1.4000000000000E+00  1.7923423171486E-01 -5.1807858054928E-01
142  1.4100000000000E+00  1.6973966698400E-01 -4.8295187422583E-01
143  1.4200000000000E+00  1.5922564056907E-01 -4.4669931624158E-01
144  1.4300000000000E+00  1.4788446662116E-01 -4.0970657873123E-01
145  1.4400000000000E+00  1.3591314105808E-01 -3.7236436656248E-01
146  1.4500000000000E+00  1.2351217611886E-01 -3.3506653725990E-01
147  1.4600000000000E+00  1.1088380112422E-01 -2.9820703180129E-01
148  1.4700000000000E+00  9.8227675504842E-02 -2.6217203289610E-01
149  1.4800000000000E+00  8.5737130883215E-02 -2.2733321033552E-01
150  1.4900000000000E+00  7.3594855065934E-02 -1.9403997239526E-01
151  1.5000000000000E+00  6.1970881227940E-02 -1.6261610676494E-01
152  1.5100000000000E+00  5.1021647252695E-02 -1.3335847556894E-01
153  1.5200000000000E+00  4.0888201611411E-02 -1.0653401586403E-01
154  1.5300000000000E+00  3.1694982019831E-02 -8.2377813191347E-02
155  1.5400000000000E+00  2.3548617048583E-02 -6.1091176233218E-02
156  1.5500000000000E+00  1.6540716756792E-02 -4.2849903946452E-02
157  1.5600000000000E+00  1.0730951145649E-02 -2.7761129254812E-02
158  1.5700000000000E+00  6.1419224599730E-03 -1.5851883745515E-02
159  1.5800000000000E+00  2.8775509527432E-03 -7.3718326374503E-03
160  1.5900000000000E+00  1.0014129297015E-03 -2.4785722489914E-03
161  1.6000000000000E+00  1.9560451347578E-04 -3.8379387654632E-04
162  1.6100000000000E+00 -2.1082676389243E-05  1.2157034085492E-04
163  1.6200000000000E+00 -1.0810963905065E-08  3.9188643555880E-08
164  1.6300000000000E+00  1.7684631794076E-05 -5.8920082737721E-05
165  1.6400000000000E+00 -2.3936611284449E-07  9.6192044470002E-07
166  1.6500000000000E+00 -2.5003573776701E-06  9.3916619891652E-06
167  1.6600000000000E+00 -7.6878502117379E-08  1.4219596548043E-07
168  1.6700000000000E+00 -4.5228339604860E-07  8.3655212316316E-07
169  1.6800000000000E+00  0.0000000000000E+00  0.0000000000000E+00
170  1.6900000000000E+00  0.0000000000000E+00  0.0000000000000E+00
171  1.7000000000000E+00  0.0000000000000E+00  0.0000000000000E+00
172  1.7100000000000E+00  0.0000000000000E+00  0.0000000000000E+00
173  1.7200000000000E+00  0.0000000000000E+00  0.0000000000000E+00
174  1.7300000000000E+00  0.0000000000000E+00  0.0000000000000E+00
175  1.7400000000000E+00  0.0000000000000E+00  0.0000000000000E+00
176  1.7500000000000E+00  0.0000000000000E+00  0.0000000000000E+00
177  1.7600000000000E+00  0.0000000000000E+00  0.0000000000000E+00
178  1.7700000000000E+00  0.0000000000000E+00  0.0000000000000E+00
179  1.7800000000000E+00  0.0000000000000E+00  0.0000000000000E+00
180  1.7900000000000E+00  0.0000000000000E+00  0.0000000000000E+00
181  1.8000000000000E+00  0.0000000000000E+00  0.0000000000000E+00
182  1.8100000000000E+00  0.0000000000000E+00  0.0000000000000E+00
183  1.8200000000000E+00  0.0000000000000E+00  0.0000000000000E+00
184  1.8300000000000E+00  0.0000000000000E+00  0.0000000000000E+00
185  1.8400000000000E+00  0.0000000000000E+00  0.0000000000000E+00
186  1.8500000000000E+00  0.0000000000000E+00  0.0000000000000E+00
187  1.8600000000000E+00  0.0000000000000E+00  0.0000000000000E+00
188  1.8700000000000E+00  0.0000000000000E+00  0.0000000000000E+00
189  1.8800000000000E+00  0.0000000000000E+00  0.0000000000000E+00
190  1.8900000000000E+00  0.0000000000000E+00  0.0000000000000E+00
191  1.9000000000000E+00  0.0000000000000E+00  0.0000000000000E+00
192  1.9100000000000E+00  0.0000000000000E+00  0.0000000000000E+00
193  1.9200000000000E+00  0.0000000000000E+00  0.0000000000000E+00
194  1.9300000000000E+00  0.0000000000000E+00  0.0000000000000E+00
195  1.9400000000000E+00  0.0000000000000E+00  0.0000000000000E+00
196  1.9500000000000E+00  0.0000000000000E+00  0.0000000000000E+00
197  1.9600000000000E+00  0.0000000000000E+00  0.0000000000000E+00
198  1.9700000000000E+00  0.0000000000000E+00  0.0000000000000E+00
199  1.9800000000000E+00  0.0000000000000E+00  0.0000000000000E+00
200  1.9900000000000E+00  0.0000000000000E+00  0.0000000000000E+00
201  2.0000000000000E+00  0.0000000000000E+00  0.0000000000000E+00
202  2.0100000000000E+00  0.0000000000000E+00  0.0000000000000E+00
203  2.0200000000000E+00  0.0000000000000E+00  0.0000000000000E+00
204  2.0300000000000E+00  0.0000000000000E+00  0.0000000000000E+00
205  2.0400000000000E+00  0.0000000000000E+00  0.0000000000000E+00
206  2.0500000000000E+00  0.0000000000000E+00  0.0000000000000E+00
207  2.0600000000000E+00  0.0000000000000E+00  0.0000000000000E+00
208  2.0700000000000E+00  0.0000000000000E+00  0.0000000000000E+00
209  2.0800000000000E+00  0.0000000000000E+00  0.0000000000000E+00
210  2.0900000000000E+00  0.0000000000000E+00  0.0000000000000E+00
211  2.1000000000000E+00  0.0000000000000E+00  0.0000000000000E+00
212  2.1100000000000E+00  0.0000000000000E+00  0.0000000000000E+00
213  2.1200000000000E+00  0.0000000000000E+00  0.0000000000000E+00
214  2.1300000000000E+00  0.0000000000000E+00  0.0000000000000E+00
215  2.1400000000000E+00  0.0000000000000E+00  0.0000000000000E+00
216  2.1500000000000E+00  0.0000000000000E+00  0.0000000000000E+00
217  2.1600000000000E+00  0.0000000000000E+00  0.0000000000000E+00
218  2.1700000000000E+00  0.0000000000000E+00  0.0000000000000E+00
219  2.1800000000000E+00  0.0000000000000E+00  0.0000000000000E+00
220  2.1900000000000E+00  0.0000000000000E+00  0.0000000000000E+00
221  2.2000000000000E+00  0.0000000000000E+00  0.0000000000000E+00
222  2.2100000000000E+00  0.0000000000000E+00  0.0000000000000E+00
223  2.2200000000000E+00  0.0000000000000E+00  0.0000000000000E+00
224  2.2300000000000E+00  0.0000000000000E+00  0.0000000000000E+00
225  2.2400000000000E+00  0.0000000000000E+00  0.0000000000000E+00
226  2.2500000000000E+00  0.0000000000000E+00  0.0000000000000E+00
227  2.2600000000000E+00  0.0000000000000E+00  0.0000000000000E+00
228  2.2700000000000E+00  0.0000000000000E+00  0.0000000000000E+00
229  2.2800000000000E+00  0.0000000000000E+00  0.0000000000000E+00
230  2.2900000000000E+00  0.0000000000000E+00  0.0000000000000E+00
231  2.3000000000000E+00  0.0000000000000E+00  0.0000000000000E+00
232  2.3100000000000E+00  0.0000000000000E+00  0.0000000000000E+00
233  2.3200000000000E+00  0.0000000000000E+00  0.0000000000000E+00
234  2.3300000000000E+00  0.0000000000000E+00  0.0000000000000E+00
235  2.3400000000000E+00  0.0000000000000E+00  0.0000000000000E+00
236  2.3500000000000E+00  0.0000000000000E+00  0.0000000000000E+00
237  2.3600000000000E+00  0.0000000000000E+00  0.0000000000000E+00
238  2.3700000000000E+00  0.0000000000000E+00  0.0000000000000E+00
239  2.3800000000000E+00  0.0000000000000E+00  0.0000000000000E+00
240  2.3900000000000E+00  0.0000000000000E+00  0.0000000000000E+00
241  2.4000000000000E+00  0.0000000000000E+00  0.0000000000000E+00
242  2.4100000000000E+00  0.0000000000000E+00  0.0000000000000E+00
243  2.4200000000000E+00  0.0000000000000E+00  0.0000000000000E+00
244  2.4300000000000E+00  0.0000000000000E+00  0.0000000000000E+00
245  2.4400000000000E+00  0.0000000000000E+00  0.0000000000000E+00
246  2.4500000000000E+00  0.0000000000000E+00  0.0000000000000E+00
247  2.4600000000000E+00  0.0000000000000E+00  0.0000000000000E+00
248  2.4700000000000E+00  0.0000000000000E+00  0.0000000000000E+00
249  2.4800000000000E+00  0.0000000000000E+00  0.0000000000000E+00
250  2.4900000000000E+00  0.0000000000000E+00  0.0000000000000E+00
251  2.5000000000000E+00  0.0000000000000E+00  0.0000000000000E+00
252  2.5100000000000E+00  0.0000000000000E+00  0.0000000000000E+00
253  2.5200000000000E+00  0.0000000000000E+00  0.0000000000000E+00
254  2.5300000000000E+00  0.0000000000000E+00  0.0000000000000E+00
255  2.5400000000000E+00  0.0000000000000E+00  0.0000000000000E+00
256  2.5500000000000E+00  0.0000000000000E+00  0.0000000000000E+00
257  2.5600000000000E+00  0.0000000000000E+00  0.0000000000000E+00
258  2.5700000000000E+00  0.0000000000000E+00  0.0000000000000E+00
259  2.5800000000000E+00  0.0000000000000E+00  0.0000000000000E+00
260  2.5900000000000E+00  0.0000000000000E+00  0.0000000000000E+00
261  2.6000000000000E+00  0.0000000000000E+00  0.0000000000000E+00
262  2.6100000000000E+00  0.0000000000000E+00  0.0000000000000E+00
263  2.6200000000000E+00  0.0000000000000E+00  0.0000000000000E+00
264  2.6300000000000E+00  0.0000000000000E+00  0.0000000000000E+00
265  2.6400000000000E+00  0.0000000000000E+00  0.0000000000000E+00
266  2.6500000000000E+00  0.0000000000000E+00  0.0000000000000E+00
267  2.6600000000000E+00  0.0000000000000E+00  0.0000000000000E+00
268  2.6700000000000E+00  0.0000000000000E+00  0.0000000000000E+00
269  2.6800000000000E+00  0.0000000000000E+00  0.0000000000000E+00
270  2.6900000000000E+00  0.0000000000000E+00  0.0000000000000E+00
271  2.7000000000000E+00  0.0000000000000E+00  0.0000000000000E+00
272  2.7100000000000E+00  0.0000000000000E+00  0.0000000000000E+00
273  2.7200000000000E+00  0.0000000000000E+00  0.0000000000000E+00
274  2.7300000000000E+00  0.0000000000000E+00  0.0000000000000E+00
275  2.7400000000000E+00  0.0000000000000E+00  0.0000000000000E+00
276  2.7500000000000E+00  0.0000000000000E+00  0.0000000000000E+00
277  2.7600000000000E+00  0.0000000000000E+00  0.0000000000000E+00
278  2.7700000000000E+00  0.0000000000000E+00  0.0000000000000E+00
279  2.7800000000000E+00  0.0000000000000E+00  0.0000000000000E+00
280  2.7900000000000E+00  0.0000000000000E+00  0.0000000000000E+00
281  2.8000000000000E+00  0.0000000000000E+00  0.0000000000000E+00
282  2.8100000000000E+00  0.0000000000000E+00  0.0000000000000E+00
283  2.8200000000000E+00  0.0000000000000E+00  0.0000000000000E+00
284  2.8300000000000E+00  0.0000000000000E+00  0.0000000000000E+00
285  2.8400000000000E+00  0.0000000000000E+00  0.0000000000000E+00
286  2.8500000000000E+00  0.0000000000000E+00  0.0000000000000E+00
287  2.8600000000000E+00  0.0000000000000E+00  0.0000000000000E+00
288  2.8700000000000E+00  0.0000000000000E+00  0.0000000000000E+00
289  2.8800000000000E+00  0.0000000000000E+00  0.0000000000000E+00
290  2.8900000000000E+00  0.0000000000000E+00  0.0000000000000E+00
291  2.9000000000000E+00  0.0000000000000E+00  0.0000000000000E+00
292  2.9100000000000E+00  0.0000000000000E+00  0.0000000000000E+00
293  2.9200000000000E+00  0.0000000000000E+00  0.0000000000000E+00
294  2.9300000000000E+00  0.0000000000000E+00  0.0000000000000E+00
295  2.9400000000000E+00  0.0000000000000E+00  0.0000000000000E+00
296  2.9500000000000E+00  0.0000000000000E+00  0.0000000000000E+00
297  2.9600000000000E+00  0.0000000000000E+00  0.0000000000000E+00
298  2.9700000000000E+00  0.0000000000000E+00  0.0000000000000E+00
299  2.9800000000000E+00  0.0000000000000E+00  0.0000000000000E+00
300  2.9900000000000E+00  0.0000000000000E+00  0.0000000000000E+00
301  3.0000000000000E+00  0.0000000000000E+00  0.0000000000000E+00
302  3.0100000000000E+00  0.0000000000000E+00  0.0000000000000E+00
303  3.0200000000000E+00  0.0000000000000E+00  0.0000000000000E+00
304  3.0300000000000E+00  0.0000000000000E+00  0.0000000000000E+00
305  3.0400000000000E+00  0.0000000000000E+00  0.0000000000000E+00
306  3.0500000000000E+00  0.0000000000000E+00  0.0000000000000E+00
307  3.0600000000000E+00  0.0000000000000E+00  0.0000000000000E+00
308  3.0700000000000E+00  0.0000000000000E+00  0.0000000000000E+00
309  3.0800000000000E+00  0.0000000000000E+00  0.0000000000000E+00
310  3.0900000000000E+00  0.0000000000000E+00  0.0000000000000E+00
311  3.1000000000000E+00  0.0000000000000E+00  0.0000000000000E+00
312  3.1100000000000E+00  0.0000000000000E+00  0.0000000000000E+00
313  3.1200000000000E+00  0.0000000000000E+00  0.0000000000000E+00
314  3.1300000000000E+00  0.0000000000000E+00  0.0000000000000E+00
315  3.1400000000000E+00  0.0000000000000E+00  0.0000000000000E+00
316  3.1500000000000E+00  0.0000000000000E+00  0.0000000000000E+00
317  3.1600000000000E+00  0.0000000000000E+00  0.0000000000000E+00
318  3.1700000000000E+00  0.0000000000000E+00  0.0000000000000E+00
319  3.1800000000000E+00  0.0000000000000E+00  0.0000000000000E+00
320  3.1900000000000E+00  0.0000000000000E+00  0.0000000000000E+00
321  3.2000000000000E+00  0.0000000000000E+00  0.0000000000000E+00
322  3.2100000000000E+00  0.0000000000000E+00  0.0000000000000E+00
323  3.2200000000000E+00  0.0000000000000E+00  0.0000000000000E+00
324  3.2300000000000E+00  0.0000000000000E+00  0.0000000000000E+00
325  3.2400000000000E+00  0.0000000000000E+00  0.0000000000000E+00
326  3.2500000000000E+00  0.0000000000000E+00  0.0000000000000E+00
327  3.2600000000000E+00  0.0000000000000E+00  0.0000000000000E+00
328  3.2700000000000E+00  0.0000000000000E+00  0.0000000000000E+00
329  3.2800000000000E+00  0.0000000000000E+00  0.0000000000000E+00
330  3.2900000000000E+00  0.0000000000000E+00  0.0000000000000E+00
331  3.3000000000000E+00  0.0000000000000E+00  0.0000000000000E+00
332  3.3100000000000E+00  0.0000000000000E+00  0.0000000000000E+00
333  3.3200000000000E+00  0.0000000000000E+00  0.0000000000000E+00
334  3.3300000000000E+00  0.0000000000000E+00  0.0000000000000E+00
335  3.3400000000000E+00  0.0000000000000E+00  0.0000000000000E+00
336  3.3500000000000E+00  0.0000000000000E+00  0.0000000000000E+00
337  3.3600000000000E+00  0.0000000000000E+00  0.0000000000000E+00
338  3.3700000000000E+00  0.0000000000000E+00  0.0000000000000E+00
339  3.3800000000000E+00  0.0000000000000E+00  0.0000000000000E+00
340  3.3900000000000E+00  0.0000000000000E+00  0.0000000000000E+00
341  3.4000000000000E+00  0.0000000000000E+00  0.0000000000000E+00
342  3.4100000000000E+00  0.0000000000000E+00  0.0000000000000E+00
343  3.4200000000000E+00  0.0000000000000E+00  0.0000000000000E+00
344  3.4300000000000E+00  0.0000000000000E+00  0.0000000000000E+00
345  3.4400000000000E+00  0.0000000000000E+00  0.0000000000000E+00
346  3.4500000000000E+00  0.0000000000000E+00  0.0000000000000E+00
347  3.4600000000000E+00  0.0000000000000E+00  0.0000000000000E+00
348  3.4700000000000E+00  0.0000000000000E+00  0.0000000000000E+00
349  3.4800000000000E+00  0.0000000000000E+00  0.0000000000000E+00
350  3.4900000000000E+00  0.0000000000000E+00  0.0000000000000E+00
351  3.5000000000000E+00  0.0000000000000E+00  0.0000000000000E+00
352  3.5100000000000E+00  0.0000000000000E+00  0.0000000000000E+00
353  3.5200000000000E+00  0.0000000000000E+00  0.0000000000000E+00
354  3.5300000000000E+00  0.0000000000000E+00  0.0000000000000E+00
355  3.5400000000000E+00  0.0000000000000E+00  0.0000000000000E+00
356  3.5500000000000E+00  0.0000000000000E+00  0.0000000000000E+00
357  3.5600000000000E+00  0.0000000000000E+00  0.0000000000000E+00
358  3.5700000000000E+00  0.0000000000000E+00  0.0000000000000E+00
359  3.5800000000000E+00  0.0000000000000E+00  0.0000000000000E+00
360  3.5900000000000E+00  0.0000000000000E+00  0.0000000000000E+00
361  3.6000000000000E+00  0.0000000000000E+00  0.0000000000000E+00
362  3.6100000000000E+00  0.0000000000000E+00  0.0000000000000E+00
363  3.6200000000000E+00  0.0000000000000E+00  0.0000000000000E+00
364  3.6300000000000E+00  0.0000000000000E+00  0.0000000000000E+00
365  3.6400000000000E+00  0.0000000000000E+00  0.0000000000000E+00
366  3.6500000000000E+00  0.0000000000000E+00  0.0000000000000E+00
367  3.6600000000000E+00  0.0000000000000E+00  0.0000000000000E+00
368  3.6700000000000E+00  0.0000000000000E+00  0.0000000000000E+00
369  3.6800000000000E+00  0.0000000000000E+00  0.0000000000000E+00
370  3.6900000000000E+00  0.0000000000000E+00  0.0000000000000E+00
371  3.7000000000000E+00  0.0000000000000E+00  0.0000000000000E+00
372  3.7100000000000E+00  0.0000000000000E+00  0.0000000000000E+00
373  3.7200000000000E+00  0.0000000000000E+00  0.0000000000000E+00
374  3.7300000000000E+00  0.0000000000000E+00  0.0000000000000E+00
375  3.7400000000000E+00  0.0000000000000E+00  0.0000000000000E+00
376  3.7500000000000E+00  0.0000000000000E+00  0.0000000000000E+00
377  3.7600000000000E+00  0.0000000000000E+00  0.0000000000000E+00
378  3.7700000000000E+00  0.0000000000000E+00  0.0000000000000E+00
379  3.7800000000000E+00  0.0000000000000E+00  0.0000000000000E+00
380  3.7900000000000E+00  0.0000000000000E+00  0.0000000000000E+00
381  3.8000000000000E+00  0.0000000000000E+00  0.0000000000000E+00
382  3.8100000000000E+00  0.0000000000000E+00  0.0000000000000E+00
383  3.8200000000000E+00  0.0000000000000E+00  0.0000000000000E+00
384  3.8300000000000E+00  0.0000000000000E+00  0.0000000000000E+00
385  3.8400000000000E+00  0.0000000000000E+00  0.0000000000000E+00
386  3.8500000000000E+00  0.0000000000000E+00  0.0000000000000E+00
387  3.8600000000000E+00  0.0000000000000E+00  0.0000000000000E+00
388  3.8700000000000E+00  0.0000000000000E+00  0.0000000000000E+00
389  3.8800000000000E+00  0.0000000000000E+00  0.0000000000000E+00
390  3.8900000000000E+00  0.0000000000000E+00  0.0000000000000E+00
391  3.9000000000000E+00  0.0000000000000E+00  0.0000000000000E+00
392  3.9100000000000E+00  0.0000000000000E+00  0.0000000000000E+00
393  3.9200000000000E+00  0.0000000000000E+00  0.0000000000000E+00
394  3.9300000000000E+00  0.0000000000000E+00  0.0000000000000E+00
395  3.9400000000000E+00  0.0000000000000E+00  0.0000000000000E+00
396  3.9500000000000E+00  0.0000000000000E+00  0.0000000000000E+00
397  3.9600000000000E+00  0.0000000000000E+00  0.0000000000000E+00
398  3.9700000000000E+00  0.0000000000000E+00  0.0000000000000E+00
399  3.9800000000000E+00  0.0000000000000E+00  0.0000000000000E+00
400  3.9900000000000E+00  0.0000000000000E+00  0.0000000000000E+00
401  4.0000000000000E+00  0.0000000000000E+00  0.0000000000000E+00
402  4.0100000000000E+00  0.0000000000000E+00  0.0000000000000E+00
403  4.0200000000000E+00  0.0000000000000E+00  0.0000000000000E+00
404  4.0300000000000E+00  0.0000000000000E+00  0.0000000000000E+00
405  4.0400000000000E+00  0.0000000000000E+00  0.0000000000000E+00
406  4.0500000000000E+00  0.0000000000000E+00  0.0000000000000E+00
407  4.0600000000000E+00  0.0000000000000E+00  0.0000000000000E+00
408  4.0700000000000E+00  0.0000000000000E+00  0.0000000000000E+00
409  4.0800000000000E+00  0.0000000000000E+00  0.0000000000000E+00
410  4.0900000000000E+00  0.0000000000000E+00  0.0000000000000E+00
411  4.1000000000000E+00  0.0000000000000E+00  0.0000000000000E+00
412  4.1100000000000E+00  0.0000000000000E+00  0.0000000000000E+00
413  4.1200000000000E+00  0.0000000000000E+00  0.0000000000000E+00
414  4.1300000000000E+00  0.0000000000000E+00  0.0000000000000E+00
415  4.1400000000000E+00  0.0000000000000E+00  0.0000000000000E+00
416  4.1500000000000E+00  0.0000000000000E+00  0.0000000000000E+00
417  4.1600000000000E+00  0.0000000000000E+00  0.0000000000000E+00
418  4.1700000000000E+00  0.0000000000000E+00  0.0000000000000E+00
419  4.1800000000000E+00  0.0000000000000E+00  0.0000000000000E+00
420  4.1900000000000E+00  0.0000000000000E+00  0.0000000000000E+00
421  4.2000000000000E+00  0.0000000000000E+00  0.0000000000000E+00
422  4.2100000000000E+00  0.0000000000000E+00  0.0000000000000E+00
423  4.2200000000000E+00  0.0000000000000E+00  0.0000000000000E+00
424  4.2300000000000E+00  0.0000000000000E+00  0.0000000000000E+00
425  4.2400000000000E+00  0.0000000000000E+00  0.0000000000000E+00
426  4.2500000000000E+00  0.0000000000000E+00  0.0000000000000E+00
427  4.2600000000000E+00  0.0000000000000E+00  0.0000000000000E+00
428  4.2700000000000E+00  0.0000000000000E+00  0.0000000000000E+00
429  4.2800000000000E+00  0.0000000000000E+00  0.0000000000000E+00
430  4.2900000000000E+00  0.0000000000000E+00  0.0000000000000E+00
431  4.3000000000000E+00  0.0000000000000E+00  0.0000000000000E+00
432  4.3100000000000E+00  0.0000000000000E+00  0.0000000000000E+00
433  4.3200000000000E+00  0.0000000000000E+00  0.0000000000000E+00
434  4.3300000000000E+00  0.0000000000000E+00  0.0000000000000E+00
435  4.3400000000000E+00  0.0000000000000E+00  0.0000000000000E+00
436  4.3500000000000E+00  0.0000000000000E+00  0.0000000000000E+00
437  4.3600000000000E+00  0.0000000000000E+00  0.0000000000000E+00
438  4.3700000000000E+00  0.0000000000000E+00  0.0000000000000E+00
439  4.3800000000000E+00  0.0000000000000E+00  0.0000000000000E+00
440  4.3900000000000E+00  0.0000000000000E+00  0.0000000000000E+00
441  4.4000000000000E+00  0.0000000000000E+00  0.0000000000000E+00
442  4.4100000000000E+00  0.0000000000000E+00  0.0000000000000E+00
443  4.4200000000000E+00  0.0000000000000E+00  0.0000000000000E+00